Title: *buck converter with adpll
Date: Sun Oct 28 16:01:33  2012
Plotname: Transient Analysis
Flags: real
No. Variables: 2
No. Points: 45953   
Variables:
	0	time	time
	1	v(vc)	voltage
Values:
0		0.000000000000000e+00
	0.000000000000000e+00
1		1.000000000000000e-12
	3.177420768954717e-11
2		2.000000000000000e-12
	6.406366075379680e-11
3		4.000000000000001e-12
	1.295508516223361e-10
4		8.000000000000001e-12
	2.650001834559240e-10
5		1.600000000000000e-11
	5.482854022404142e-10
6		3.200000000000001e-11
	1.144123653372366e-09
7		6.400000000000001e-11
	2.384948834604991e-09
8		1.280000000000000e-10
	4.910915540787161e-09
9		2.280000000000000e-10
	8.871379680384490e-09
10		3.280000000000001e-10
	1.283879275751335e-08
11		4.280000000000001e-10
	1.681091355520653e-08
12		5.280000000000000e-10
	2.078468373597060e-08
13		6.280000000000000e-10
	2.475849072639747e-08
14		7.280000000000000e-10
	2.873090119376315e-08
15		8.279999999999999e-10
	3.270097608497852e-08
16		9.279999999999999e-10
	3.666798951316685e-08
17		1.000000000000000e-09
	3.952205648038877e-08
18		1.010000000000000e-09
	3.996969631525650e-08
19		1.030000000000000e-09
	4.065986638787992e-08
20		1.070000000000000e-09
	4.229817747155922e-08
21		1.150000000000000e-09
	4.546623015420967e-08
22		1.250000000000000e-09
	4.940568975874733e-08
23		1.350000000000000e-09
	5.337840044188602e-08
24		1.450000000000000e-09
	5.729591952816408e-08
25		1.550000000000000e-09
	6.126679120747106e-08
26		1.650000000000000e-09
	6.516981983017703e-08
27		1.750000000000000e-09
	6.913344753821406e-08
28		1.850000000000000e-09
	7.302702675138303e-08
29		1.950000000000001e-09
	7.697943189124093e-08
30		2.050000000000001e-09
	8.086522739809353e-08
31		2.150000000000001e-09
	8.480530433268074e-08
32		2.250000000000001e-09
	8.868374771598444e-08
33		2.350000000000001e-09
	9.261120877441016e-08
34		2.450000000000001e-09
	9.648228223820897e-08
35		2.550000000000001e-09
	1.003970101123043e-07
36		2.650000000000001e-09
	1.042613825009272e-07
37		2.750000000000001e-09
	1.081628269373283e-07
38		2.850000000000001e-09
	1.120191278140798e-07
39		2.950000000000001e-09
	1.159082915124924e-07
40		3.050000000000001e-09
	1.197563563704438e-07
41		3.150000000000001e-09
	1.236334710129727e-07
42		3.250000000000001e-09
	1.274732102560021e-07
43		3.350000000000001e-09
	1.313386263136548e-07
44		3.450000000000002e-09
	1.351699114114989e-07
45		3.550000000000002e-09
	1.390237710395756e-07
46		3.650000000000002e-09
	1.428460720815164e-07
47		3.750000000000001e-09
	1.466878864344084e-07
48		3.850000000000001e-09
	1.504997988359738e-07
49		3.950000000000001e-09
	1.543277334896969e-07
50		4.050000000000002e-09
	1.581256348595065e-07
51		4.150000000000002e-09
	1.619337663343005e-07
52		4.250000000000002e-09
	1.657044376832098e-07
53		4.350000000000002e-09
	1.694713424927954e-07
54		4.450000000000002e-09
	1.731628503018952e-07
55		4.550000000000002e-09
	1.767981376027427e-07
56		4.650000000000002e-09
	1.804316020995025e-07
57		4.750000000000002e-09
	1.870622666313249e-07
58		4.850000000000002e-09
	2.603613326684267e-07
59		4.950000000000002e-09
	1.164180753439988e-04
60		5.032287067566953e-09
	3.654558598240146e-04
61		5.119471902492274e-09
	6.084598097102761e-04
62		5.219471902492274e-09
	8.835819792427489e-04
63		5.319471902492274e-09
	1.167641502606606e-03
64		5.419471902492274e-09
	1.441204698162537e-03
65		5.519471902492274e-09
	1.724325064008341e-03
66		5.619471902492274e-09
	1.997994031857454e-03
67		5.719471902492274e-09
	2.279559569096938e-03
68		5.819471902492274e-09
	2.553436518367700e-03
69		5.919471902492274e-09
	2.833479562700780e-03
70		6.019471902492274e-09
	3.107441955629991e-03
71		6.119471902492274e-09
	3.386101359309357e-03
72		6.219471902492275e-09
	3.659999081849396e-03
73		6.319471902492275e-09
	3.937413424807783e-03
74		6.419471902492275e-09
	4.211119872558941e-03
75		6.519471902492275e-09
	4.487410685169468e-03
76		6.619471902492275e-09
	4.760816014662043e-03
77		6.719471902492275e-09
	5.036083316417213e-03
78		6.819471902492275e-09
	5.309101276950885e-03
79		6.919471902492275e-09
	5.583425093770833e-03
80		7.019471902492275e-09
	5.855987915332326e-03
81		7.119471902492275e-09
	6.129431773841972e-03
82		7.219471902492275e-09
	6.401486763585896e-03
83		7.319471902492275e-09
	6.674100692272132e-03
84		7.419471902492275e-09
	6.945607324746842e-03
85		7.519471902492275e-09
	7.217430487749159e-03
86		7.619471902492274e-09
	7.488357941962968e-03
87		7.719471902492273e-09
	7.759420865975450e-03
88		7.819471902492272e-09
	8.029745986191390e-03
89		7.919471902492272e-09
	8.300072397950612e-03
90		8.000000000000000e-09
	8.517264770682030e-03
91		8.010000000000000e-09
	8.544273300506847e-03
92		8.030000000000000e-09
	8.598232100643989e-03
93		8.070000000000000e-09
	8.706045555229981e-03
94		8.150000000000000e-09
	8.921545302723178e-03
95		8.249999999999999e-09
	9.190600081838409e-03
96		8.349999999999999e-09
	9.459333209414951e-03
97		8.449999999999998e-09
	9.727721191903101e-03
98		8.549999999999997e-09
	9.995784218448225e-03
99		8.649999999999996e-09
	1.026350660974193e-02
100		8.749999999999996e-09
	1.053090197112799e-02
101		8.849999999999995e-09
	1.079796014156557e-02
102		8.949999999999994e-09
	1.106469010671789e-02
103		9.049999999999993e-09
	1.133108555449084e-02
104		9.149999999999993e-09
	1.159715225293474e-02
105		9.249999999999992e-09
	1.186288656702564e-02
106		9.349999999999991e-09
	1.212829205153466e-02
107		9.449999999999990e-09
	1.239336688895686e-02
108		9.549999999999990e-09
	1.265811314416865e-02
109		9.649999999999989e-09
	1.292253021062500e-02
110		9.749999999999988e-09
	1.318661917112235e-02
111		9.849999999999987e-09
	1.345038020569920e-02
112		9.949999999999987e-09
	1.371381376876878e-02
113		1.004999999999999e-08
	1.397692053311967e-02
114		1.014999999999999e-08
	1.423970056800853e-02
115		1.024999999999998e-08
	1.450215483846199e-02
116		1.034999999999998e-08
	1.476428319315949e-02
117		1.044999999999998e-08
	1.502608675496113e-02
118		1.054999999999998e-08
	1.528756526113333e-02
119		1.064999999999998e-08
	1.554871990048402e-02
120		1.074999999999998e-08
	1.580955036787683e-02
121		1.084999999999998e-08
	1.607005787556047e-02
122		1.094999999999998e-08
	1.633024212333183e-02
123		1.104999999999998e-08
	1.659010429582603e-02
124		1.114999999999998e-08
	1.684964412294676e-02
125		1.124999999999998e-08
	1.710886275009760e-02
126		1.134999999999998e-08
	1.736775994975836e-02
127		1.144999999999998e-08
	1.762633681828955e-02
128		1.154999999999997e-08
	1.788459317745858e-02
129		1.164999999999997e-08
	1.814253007062993e-02
130		1.174999999999997e-08
	1.840014737125863e-02
131		1.184999999999997e-08
	1.865744606781975e-02
132		1.194999999999997e-08
	1.891442608466328e-02
133		1.204999999999997e-08
	1.917108836251631e-02
134		1.214999999999997e-08
	1.942743286741661e-02
135		1.224999999999997e-08
	1.968346049487254e-02
136		1.234999999999997e-08
	1.993917125387299e-02
137		1.244999999999997e-08
	2.019456599729638e-02
138		1.254999999999997e-08
	2.044964477224442e-02
139		1.264999999999997e-08
	2.070440839291597e-02
140		1.274999999999997e-08
	2.095885694119509e-02
141		1.284999999999996e-08
	2.121299119579359e-02
142		1.294999999999996e-08
	2.146681127022653e-02
143		1.304999999999996e-08
	2.172031791085491e-02
144		1.314999999999996e-08
	2.197351125974435e-02
145		1.324999999999996e-08
	2.222639203392202e-02
146		1.334999999999996e-08
	2.247896040108849e-02
147		1.344999999999996e-08
	2.273121705175319e-02
148		1.354999999999996e-08
	2.298316217656355e-02
149		1.364999999999996e-08
	2.323479644207858e-02
150		1.374999999999996e-08
	2.348612005946581e-02
151		1.384999999999996e-08
	2.373713367363464e-02
152		1.394999999999996e-08
	2.398783751411053e-02
153		1.404999999999996e-08
	2.423823220619475e-02
154		1.414999999999995e-08
	2.448831799585766e-02
155		1.424999999999995e-08
	2.473809549059735e-02
156		1.434999999999995e-08
	2.498756495113974e-02
157		1.444999999999995e-08
	2.523672696876624e-02
158		1.454999999999995e-08
	2.548558181748104e-02
159		1.464999999999995e-08
	2.573413007374168e-02
160		1.474999999999995e-08
	2.598237202352061e-02
161		1.484999999999995e-08
	2.623030822969162e-02
162		1.494999999999995e-08
	2.647793898903722e-02
163		1.504999999999995e-08
	2.672526485193167e-02
164		1.514999999999995e-08
	2.697228612494984e-02
165		1.524999999999995e-08
	2.721900334694471e-02
166		1.534999999999995e-08
	2.746541683335557e-02
167		1.544999999999995e-08
	2.771152711238409e-02
168		1.554999999999995e-08
	2.795733450735733e-02
169		1.564999999999995e-08
	2.820283953575939e-02
170		1.574999999999996e-08
	2.844804252950838e-02
171		1.584999999999996e-08
	2.869294399786724e-02
172		1.594999999999996e-08
	2.893754427813208e-02
173		1.604999999999996e-08
	2.918184387085096e-02
174		1.614999999999996e-08
	2.942584311965032e-02
175		1.624999999999996e-08
	2.966954251696161e-02
176		1.634999999999996e-08
	2.991294241203913e-02
177		1.644999999999996e-08
	3.015604328976483e-02
178		1.654999999999996e-08
	3.039884550450766e-02
179		1.664999999999996e-08
	3.064134953406994e-02
180		1.674999999999996e-08
	3.088355573748439e-02
181		1.684999999999997e-08
	3.112546458590196e-02
182		1.694999999999997e-08
	3.136707644260196e-02
183		1.704999999999997e-08
	3.160839177248076e-02
184		1.714999999999997e-08
	3.184941094268785e-02
185		1.724999999999997e-08
	3.209013441221070e-02
186		1.734999999999997e-08
	3.233056255174634e-02
187		1.744999999999997e-08
	3.257069581466625e-02
188		1.754999999999997e-08
	3.281053457494369e-02
189		1.764999999999997e-08
	3.305007928057811e-02
190		1.774999999999997e-08
	3.328933030857876e-02
191		1.784999999999997e-08
	3.352828810182789e-02
192		1.794999999999998e-08
	3.376695304007663e-02
193		1.804999999999998e-08
	3.400532556141095e-02
194		1.814999999999998e-08
	3.424340604797524e-02
195		1.824999999999998e-08
	3.448119493341480e-02
196		1.834999999999998e-08
	3.471869260190187e-02
197		1.844999999999998e-08
	3.495589948299781e-02
198		1.854999999999998e-08
	3.519281596254722e-02
199		1.864999999999998e-08
	3.542944246636567e-02
200		1.874999999999998e-08
	3.566577938163857e-02
201		1.884999999999998e-08
	3.590182713074533e-02
202		1.894999999999998e-08
	3.613758610191151e-02
203		1.904999999999999e-08
	3.637305671435763e-02
204		1.914999999999999e-08
	3.660823935708098e-02
205		1.924999999999999e-08
	3.684313444638784e-02
206		1.934999999999999e-08
	3.707774237181048e-02
207		1.944999999999999e-08
	3.731206354695493e-02
208		1.954999999999999e-08
	3.754609836168094e-02
209		1.964999999999999e-08
	3.777984722707989e-02
210		1.974999999999999e-08
	3.801331053315795e-02
211		1.984999999999999e-08
	3.824648868865280e-02
212		1.994999999999999e-08
	3.847938208355935e-02
213		2.004999999999999e-08
	3.871199112440021e-02
214		2.015000000000000e-08
	3.894431620102165e-02
215		2.025000000000000e-08
	3.917635771782858e-02
216		2.035000000000000e-08
	3.940811606446272e-02
217		2.045000000000000e-08
	3.963959164329964e-02
218		2.055000000000000e-08
	3.987078484354471e-02
219		2.065000000000000e-08
	4.010169606580186e-02
220		2.075000000000000e-08
	4.033232569861676e-02
221		2.085000000000000e-08
	4.056267414105677e-02
222		2.095000000000000e-08
	4.079274178093947e-02
223		2.105000000000000e-08
	4.102252901544044e-02
224		2.115000000000000e-08
	4.125203623211367e-02
225		2.125000000000000e-08
	4.148126382606510e-02
226		2.135000000000001e-08
	4.171021218447887e-02
227		2.145000000000001e-08
	4.193888170058333e-02
228		2.155000000000001e-08
	4.216727276098961e-02
229		2.165000000000001e-08
	4.239538575722231e-02
230		2.175000000000001e-08
	4.262322107516642e-02
231		2.185000000000001e-08
	4.285077910476410e-02
232		2.195000000000001e-08
	4.307806023106855e-02
233		2.205000000000001e-08
	4.330506484252065e-02
234		2.215000000000001e-08
	4.353179332326992e-02
235		2.225000000000001e-08
	4.375824606031072e-02
236		2.235000000000001e-08
	4.398442343683856e-02
237		2.245000000000002e-08
	4.421032583843907e-02
238		2.255000000000002e-08
	4.443595364731800e-02
239		2.265000000000002e-08
	4.466130724767899e-02
240		2.275000000000002e-08
	4.488638702071147e-02
241		2.285000000000002e-08
	4.511119334925714e-02
242		2.295000000000002e-08
	4.533572661346882e-02
243		2.305000000000002e-08
	4.555998719484207e-02
244		2.315000000000002e-08
	4.578397547247699e-02
245		2.325000000000002e-08
	4.600769182653597e-02
246		2.335000000000002e-08
	4.623113663505311e-02
247		2.345000000000002e-08
	4.645431027686935e-02
248		2.355000000000003e-08
	4.667721312894164e-02
249		2.365000000000003e-08
	4.689984556880002e-02
250		2.375000000000003e-08
	4.712220797231471e-02
251		2.385000000000003e-08
	4.734430071571510e-02
252		2.395000000000003e-08
	4.756612417377642e-02
253		2.405000000000003e-08
	4.778767872143724e-02
254		2.415000000000003e-08
	4.800896473237075e-02
255		2.425000000000003e-08
	4.822998258023443e-02
256		2.435000000000003e-08
	4.845073263759308e-02
257		2.445000000000003e-08
	4.867121527683306e-02
258		2.455000000000003e-08
	4.889143086940587e-02
259		2.465000000000004e-08
	4.911137978643618e-02
260		2.475000000000004e-08
	4.933106239825805e-02
261		2.485000000000004e-08
	4.955047907474430e-02
262		2.495000000000004e-08
	4.976963018510809e-02
263		2.505000000000004e-08
	4.998851609798052e-02
264		2.515000000000004e-08
	5.020713718145127e-02
265		2.525000000000004e-08
	5.042549380291956e-02
266		2.535000000000004e-08
	5.064358632934993e-02
267		2.545000000000004e-08
	5.086141512691988e-02
268		2.555000000000004e-08
	5.107898056146795e-02
269		2.565000000000004e-08
	5.129628299796012e-02
270		2.575000000000005e-08
	5.151332280110878e-02
271		2.585000000000005e-08
	5.173010033467824e-02
272		2.595000000000005e-08
	5.194661596225578e-02
273		2.605000000000005e-08
	5.216287004641446e-02
274		2.615000000000005e-08
	5.237886294961770e-02
275		2.625000000000005e-08
	5.259459503325737e-02
276		2.635000000000005e-08
	5.281006665867529e-02
277		2.645000000000005e-08
	5.302527818609228e-02
278		2.655000000000005e-08
	5.324022997573162e-02
279		2.665000000000005e-08
	5.345492238665324e-02
280		2.675000000000005e-08
	5.366935577796522e-02
281		2.685000000000006e-08
	5.388353050757690e-02
282		2.695000000000006e-08
	5.409744693348535e-02
283		2.705000000000006e-08
	5.431110541245957e-02
284		2.715000000000006e-08
	5.452450630139005e-02
285		2.725000000000006e-08
	5.473764995591546e-02
286		2.735000000000006e-08
	5.495053673182506e-02
287		2.745000000000006e-08
	5.516316698363754e-02
288		2.755000000000006e-08
	5.537554106604629e-02
289		2.765000000000006e-08
	5.558765933245991e-02
290		2.775000000000006e-08
	5.579952213648199e-02
291		2.785000000000006e-08
	5.601112983042127e-02
292		2.795000000000006e-08
	5.622248276679764e-02
293		2.805000000000007e-08
	5.643358129682995e-02
294		2.815000000000007e-08
	5.664442577196117e-02
295		2.825000000000007e-08
	5.685501654233015e-02
296		2.835000000000007e-08
	5.706535395830965e-02
297		2.845000000000007e-08
	5.727543836896846e-02
298		2.855000000000007e-08
	5.748527012361616e-02
299		2.865000000000007e-08
	5.769484957026100e-02
300		2.875000000000007e-08
	5.790417705715682e-02
301		2.885000000000007e-08
	5.811325293126102e-02
302		2.895000000000007e-08
	5.832207753977882e-02
303		2.905000000000007e-08
	5.853065122862638e-02
304		2.915000000000008e-08
	5.873897434396786e-02
305		2.925000000000008e-08
	5.894704723068730e-02
306		2.935000000000008e-08
	5.915487023391543e-02
307		2.945000000000008e-08
	5.936244369751342e-02
308		2.955000000000008e-08
	5.956976796558618e-02
309		2.965000000000008e-08
	5.977684338098088e-02
310		2.975000000000008e-08
	5.998367028678406e-02
311		2.985000000000008e-08
	6.019024902483776e-02
312		2.995000000000008e-08
	6.039657993721771e-02
313		3.005000000000008e-08
	6.060266336476951e-02
314		3.015000000000008e-08
	6.080849964856557e-02
315		3.025000000000008e-08
	6.101408912846332e-02
316		3.035000000000008e-08
	6.121943214453937e-02
317		3.045000000000008e-08
	6.142452903567112e-02
318		3.055000000000008e-08
	6.162938014094675e-02
319		3.065000000000009e-08
	6.183398579827160e-02
320		3.075000000000009e-08
	6.203834634575260e-02
321		3.085000000000009e-08
	6.224246212033069e-02
322		3.095000000000009e-08
	6.244633345913857e-02
323		3.105000000000009e-08
	6.264996069816051e-02
324		3.115000000000009e-08
	6.285334417356192e-02
325		3.125000000000009e-08
	6.305648422037728e-02
326		3.135000000000009e-08
	6.325938117381166e-02
327		3.145000000000009e-08
	6.346203536795700e-02
328		3.155000000000009e-08
	6.366444713706454e-02
329		3.165000000000009e-08
	6.386661681429009e-02
330		3.175000000000010e-08
	6.406854473293748e-02
331		3.185000000000010e-08
	6.427023122523340e-02
332		3.195000000000010e-08
	6.447167662354060e-02
333		3.205000000000010e-08
	6.467288125916243e-02
334		3.215000000000010e-08
	6.487384546352648e-02
335		3.225000000000010e-08
	6.507456956701894e-02
336		3.235000000000010e-08
	6.527505390013839e-02
337		3.245000000000010e-08
	6.547529879235953e-02
338		3.255000000000010e-08
	6.567530457325735e-02
339		3.265000000000010e-08
	6.587507157140075e-02
340		3.275000000000010e-08
	6.607460011544648e-02
341		3.285000000000011e-08
	6.627389053306282e-02
342		3.295000000000011e-08
	6.647294315199388e-02
343		3.305000000000011e-08
	6.667175829901228e-02
344		3.315000000000011e-08
	6.687033630095450e-02
345		3.325000000000011e-08
	6.706867748370238e-02
346		3.335000000000011e-08
	6.726678217318946e-02
347		3.345000000000011e-08
	6.746465069441150e-02
348		3.355000000000011e-08
	6.766228337240381e-02
349		3.365000000000011e-08
	6.785968053128030e-02
350		3.375000000000011e-08
	6.805684249518267e-02
351		3.385000000000011e-08
	6.825376958734729e-02
352		3.395000000000012e-08
	6.845046213102660e-02
353		3.405000000000012e-08
	6.864692044858327e-02
354		3.415000000000012e-08
	6.884314486238435e-02
355		3.425000000000012e-08
	6.903913569392285e-02
356		3.435000000000012e-08
	6.923489326468467e-02
357		3.445000000000012e-08
	6.943041789529654e-02
358		3.455000000000012e-08
	6.962570990636674e-02
359		3.465000000000012e-08
	6.982076961765937e-02
360		3.475000000000012e-08
	7.001559734890894e-02
361		3.485000000000012e-08
	7.021019341902004e-02
362		3.495000000000012e-08
	7.040455814685675e-02
363		3.505000000000013e-08
	7.059869185046731e-02
364		3.515000000000013e-08
	7.079259484784886e-02
365		3.525000000000013e-08
	7.098626745619639e-02
366		3.535000000000013e-08
	7.117970999264311e-02
367		3.545000000000013e-08
	7.137292277353348e-02
368		3.555000000000013e-08
	7.156590611513990e-02
369		3.565000000000013e-08
	7.175866033295912e-02
370		3.575000000000013e-08
	7.195118574240583e-02
371		3.585000000000013e-08
	7.214348265813160e-02
372		3.595000000000013e-08
	7.233555139469613e-02
373		3.605000000000013e-08
	7.252739226590832e-02
374		3.615000000000014e-08
	7.271900558547559e-02
375		3.625000000000014e-08
	7.291039166636662e-02
376		3.635000000000014e-08
	7.310155082143920e-02
377		3.645000000000014e-08
	7.329248336282396e-02
378		3.655000000000014e-08
	7.348318960253174e-02
379		3.665000000000014e-08
	7.367366985185747e-02
380		3.675000000000014e-08
	7.386392442196714e-02
381		3.685000000000014e-08
	7.405395362332212e-02
382		3.695000000000014e-08
	7.424375776624632e-02
383		3.705000000000014e-08
	7.443333716036943e-02
384		3.715000000000014e-08
	7.462269211517544e-02
385		3.725000000000014e-08
	7.481182293946465e-02
386		3.735000000000015e-08
	7.500072994188328e-02
387		3.745000000000015e-08
	7.518941343040389e-02
388		3.755000000000015e-08
	7.537787371283723e-02
389		3.765000000000015e-08
	7.556611109633023e-02
390		3.775000000000015e-08
	7.575412588786026e-02
391		3.785000000000015e-08
	7.594191839375035e-02
392		3.795000000000015e-08
	7.612948892014669e-02
393		3.800000000000000e-08
	7.622319102692419e-02
394		3.801000000000000e-08
	7.624192369746806e-02
395		3.803000000000000e-08
	7.627938469409966e-02
396		3.807000000000000e-08
	7.635427987050629e-02
397		3.815000000000000e-08
	7.650396414552212e-02
398		3.825000000000000e-08
	7.669087057967587e-02
399		3.835000000000000e-08
	7.687755622311639e-02
400		3.845000000000000e-08
	7.706402145103619e-02
401		3.855000000000000e-08
	7.725026648035536e-02
402		3.865000000000001e-08
	7.743629171131310e-02
403		3.875000000000001e-08
	7.762209734284820e-02
404		3.885000000000001e-08
	7.780768378437747e-02
405		3.895000000000001e-08
	7.799305122935392e-02
406		3.905000000000001e-08
	7.817820008659446e-02
407		3.915000000000001e-08
	7.836313055136752e-02
408		3.925000000000001e-08
	7.854784302620654e-02
409		3.935000000000001e-08
	7.873233771217306e-02
410		3.945000000000001e-08
	7.891661500246078e-02
411		3.955000000000001e-08
	7.910067510582626e-02
412		3.965000000000001e-08
	7.928451840533142e-02
413		3.975000000000002e-08
	7.946814512011817e-02
414		3.985000000000002e-08
	7.965155562518852e-02
415		3.995000000000002e-08
	7.983475015743263e-02
416		4.005000000000002e-08
	8.001772909719700e-02
417		4.015000000000002e-08
	8.020049269346360e-02
418		4.025000000000002e-08
	8.038304127607059e-02
419		4.035000000000002e-08
	8.056537504467409e-02
420		4.045000000000002e-08
	8.074749435260239e-02
421		4.055000000000002e-08
	8.092939947589721e-02
422		4.065000000000002e-08
	8.111109074707357e-02
423		4.075000000000002e-08
	8.129256842217586e-02
424		4.085000000000002e-08
	8.147383283471972e-02
425		4.095000000000003e-08
	8.165488423905699e-02
426		4.105000000000003e-08
	8.183572296654944e-02
427		4.115000000000003e-08
	8.201634927484809e-02
428		4.125000000000003e-08
	8.219676348931068e-02
429		4.135000000000003e-08
	8.237696587213900e-02
430		4.145000000000003e-08
	8.255695674271808e-02
431		4.155000000000003e-08
	8.273673636731391e-02
432		4.165000000000003e-08
	8.291630506001693e-02
433		4.175000000000003e-08
	8.309566309042511e-02
434		4.185000000000003e-08
	8.327481076806210e-02
435		4.195000000000003e-08
	8.345374836517669e-02
436		4.205000000000004e-08
	8.363247618736164e-02
437		4.215000000000004e-08
	8.381099450893821e-02
438		4.225000000000004e-08
	8.398930363210141e-02
439		4.235000000000004e-08
	8.416740383276347e-02
440		4.245000000000004e-08
	8.434529541016417e-02
441		4.255000000000004e-08
	8.452297864140482e-02
442		4.265000000000004e-08
	8.470045382313665e-02
443		4.275000000000004e-08
	8.487772123331942e-02
444		4.285000000000004e-08
	8.505478116632252e-02
445		4.295000000000004e-08
	8.523163390069113e-02
446		4.305000000000004e-08
	8.540827972876641e-02
447		4.315000000000005e-08
	8.558471892945152e-02
448		4.325000000000005e-08
	8.576095179326906e-02
449		4.335000000000005e-08
	8.593697859929195e-02
450		4.345000000000005e-08
	8.611279963639881e-02
451		4.355000000000005e-08
	8.628841518367696e-02
452		4.365000000000005e-08
	8.646382552850612e-02
453		4.375000000000005e-08
	8.663903094985925e-02
454		4.385000000000005e-08
	8.681403173373800e-02
455		4.395000000000005e-08
	8.698882815889498e-02
456		4.405000000000005e-08
	8.716342051005391e-02
457		4.415000000000005e-08
	8.733780906565899e-02
458		4.425000000000006e-08
	8.751199410923979e-02
459		4.435000000000006e-08
	8.768597591885995e-02
460		4.445000000000006e-08
	8.785975481320407e-02
461		4.455000000000006e-08
	8.803333106033366e-02
462		4.465000000000006e-08
	8.820670491457526e-02
463		4.475000000000006e-08
	8.837987665415298e-02
464		4.485000000000006e-08
	8.855284655874993e-02
465		4.495000000000006e-08
	8.872561490523938e-02
466		4.500000000000001e-08
	8.881192357306898e-02
467		4.501000000000000e-08
	8.882917826648903e-02
468		4.503000000000001e-08
	8.886368360430831e-02
469		4.507000000000001e-08
	8.893267025932507e-02
470		4.515000000000000e-08
	8.907054698283928e-02
471		4.525000000000000e-08
	8.924271236764350e-02
472		4.535000000000001e-08
	8.941467722402201e-02
473		4.545000000000001e-08
	8.958644197459797e-02
474		4.555000000000001e-08
	8.975800677555773e-02
475		4.565000000000001e-08
	8.992937199728709e-02
476		4.575000000000001e-08
	9.010053784313908e-02
477		4.585000000000001e-08
	9.027150463884459e-02
478		4.595000000000001e-08
	9.044227262666586e-02
479		4.605000000000001e-08
	9.061284209620928e-02
480		4.615000000000001e-08
	9.078321332015764e-02
481		4.625000000000001e-08
	9.095338656022389e-02
482		4.635000000000001e-08
	9.112336211169184e-02
483		4.645000000000002e-08
	9.129314021570088e-02
484		4.655000000000002e-08
	9.146272118337596e-02
485		4.665000000000002e-08
	9.163210524146533e-02
486		4.675000000000002e-08
	9.180129271133897e-02
487		4.685000000000002e-08
	9.197028381038055e-02
488		4.695000000000002e-08
	9.213907886573854e-02
489		4.705000000000002e-08
	9.230767808938063e-02
490		4.715000000000002e-08
	9.247608181077116e-02
491		4.725000000000002e-08
	9.264429023947740e-02
492		4.735000000000002e-08
	9.281230370468514e-02
493		4.745000000000002e-08
	9.298012241577903e-02
494		4.755000000000003e-08
	9.314774669979718e-02
495		4.765000000000003e-08
	9.331517676750420e-02
496		4.775000000000003e-08
	9.348241294251017e-02
497		4.785000000000003e-08
	9.364945543799665e-02
498		4.795000000000003e-08
	9.381630457333028e-02
499		4.805000000000003e-08
	9.398296056473847e-02
500		4.815000000000003e-08
	9.414942372688542e-02
501		4.825000000000003e-08
	9.431569427939515e-02
502		4.835000000000003e-08
	9.448177253194467e-02
503		4.845000000000003e-08
	9.464765870764136e-02
504		4.855000000000003e-08
	9.481335311144434e-02
505		4.865000000000004e-08
	9.497885596961299e-02
506		4.875000000000004e-08
	9.514416758243552e-02
507		4.885000000000004e-08
	9.530928817942541e-02
508		4.895000000000004e-08
	9.547421805624094e-02
509		4.905000000000004e-08
	9.563895744544944e-02
510		4.915000000000004e-08
	9.580350663836060e-02
511		4.925000000000004e-08
	9.596786587028884e-02
512		4.935000000000004e-08
	9.613203542851680e-02
513		4.945000000000004e-08
	9.629601555078579e-02
514		4.955000000000004e-08
	9.645980652067357e-02
515		4.965000000000004e-08
	9.662340857803442e-02
516		4.975000000000005e-08
	9.678682200305284e-02
517		4.985000000000005e-08
	9.695004703739706e-02
518		4.995000000000005e-08
	9.711308395815134e-02
519		5.005000000000005e-08
	9.727593300851865e-02
520		5.015000000000005e-08
	9.743859446275574e-02
521		5.025000000000005e-08
	9.760106856534305e-02
522		5.035000000000005e-08
	9.776335558795911e-02
523		5.045000000000005e-08
	9.792545577612789e-02
524		5.055000000000005e-08
	9.808736939917635e-02
525		5.065000000000005e-08
	9.824909670346106e-02
526		5.075000000000005e-08
	9.841063795616020e-02
527		5.085000000000005e-08
	9.857199340427504e-02
528		5.095000000000006e-08
	9.873316331301678e-02
529		5.105000000000006e-08
	9.889414792986406e-02
530		5.115000000000006e-08
	9.905494751822123e-02
531		5.125000000000006e-08
	9.921556232589790e-02
532		5.135000000000006e-08
	9.937599261463380e-02
533		5.145000000000006e-08
	9.953623863243921e-02
534		5.155000000000006e-08
	9.969630063951442e-02
535		5.165000000000006e-08
	9.985617888395792e-02
536		5.175000000000006e-08
	1.000158736245396e-01
537		5.185000000000006e-08
	1.001753851093475e-01
538		5.195000000000006e-08
	1.003347135958172e-01
539		5.205000000000007e-08
	1.004938593319405e-01
540		5.215000000000007e-08
	1.006528225739021e-01
541		5.225000000000007e-08
	1.008116035695233e-01
542		5.235000000000007e-08
	1.009702025738114e-01
543		5.245000000000007e-08
	1.011286198343525e-01
544		5.255000000000007e-08
	1.012868556050402e-01
545		5.265000000000007e-08
	1.014449101331702e-01
546		5.275000000000007e-08
	1.016027836715774e-01
547		5.285000000000007e-08
	1.017604764672190e-01
548		5.295000000000007e-08
	1.019179887719205e-01
549		5.305000000000007e-08
	1.020753208322586e-01
550		5.315000000000008e-08
	1.022324728990914e-01
551		5.325000000000008e-08
	1.023894452185798e-01
552		5.335000000000008e-08
	1.025462380406516e-01
553		5.345000000000008e-08
	1.027028516110208e-01
554		5.355000000000008e-08
	1.028592861787176e-01
555		5.365000000000008e-08
	1.030155419889825e-01
556		5.375000000000008e-08
	1.031716192899762e-01
557		5.385000000000008e-08
	1.033275183264433e-01
558		5.395000000000008e-08
	1.034832393457002e-01
559		5.405000000000008e-08
	1.036387825919754e-01
560		5.415000000000008e-08
	1.037941483117630e-01
561		5.425000000000009e-08
	1.039493367487590e-01
562		5.435000000000009e-08
	1.041043481486546e-01
563		5.445000000000009e-08
	1.042591827545981e-01
564		5.455000000000009e-08
	1.044138408114955e-01
565		5.465000000000009e-08
	1.045683225619359e-01
566		5.475000000000009e-08
	1.047226282500542e-01
567		5.485000000000009e-08
	1.048767581178693e-01
568		5.495000000000009e-08
	1.050307124087596e-01
569		5.505000000000009e-08
	1.051844913641649e-01
570		5.515000000000009e-08
	1.053380952267187e-01
571		5.525000000000009e-08
	1.054915242372738e-01
572		5.535000000000010e-08
	1.056447786377297e-01
573		5.545000000000010e-08
	1.057978586683462e-01
574		5.555000000000010e-08
	1.059507645702984e-01
575		5.565000000000010e-08
	1.061034965832471e-01
576		5.575000000000010e-08
	1.062560549476525e-01
577		5.585000000000010e-08
	1.064084399025718e-01
578		5.595000000000010e-08
	1.065606516877575e-01
579		5.605000000000010e-08
	1.067126905416594e-01
580		5.615000000000010e-08
	1.068645567033301e-01
581		5.625000000000010e-08
	1.070162504106090e-01
582		5.635000000000010e-08
	1.071677719018549e-01
583		5.645000000000011e-08
	1.073191214142943e-01
584		5.655000000000011e-08
	1.074702991855988e-01
585		5.665000000000011e-08
	1.076213054523790e-01
586		5.675000000000011e-08
	1.077721404516247e-01
587		5.685000000000011e-08
	1.079228044193299e-01
588		5.695000000000011e-08
	1.080732975918077e-01
589		5.705000000000011e-08
	1.082236202044341e-01
590		5.715000000000011e-08
	1.083737724928500e-01
591		5.725000000000011e-08
	1.085237546918123e-01
592		5.735000000000011e-08
	1.086735670362948e-01
593		5.745000000000011e-08
	1.088232097604345e-01
594		5.755000000000011e-08
	1.089726830985419e-01
595		5.765000000000012e-08
	1.091219872841340e-01
596		5.775000000000012e-08
	1.092711225508618e-01
597		5.785000000000012e-08
	1.094200891316223e-01