Title: *two imput opamp
Date: Sat Sep 28 01:43:14  2013
Plotname: DC transfer characteristic
Flags: real
No. Variables: 7
No. Points: 3301
Variables:
	0	v-sweep	voltage
	1	v(outc)	voltage
	2	v(net01,_net0)	notype
	3	v(ib_amp)	voltage
	4	v(net8)	voltage
	5	v(net1)	voltage
	6	v(net5)	voltage
Values:
 0	0.000000000000000e+00
	3.299989833623154e+00
	-1.650000000000000e+00
	3.018471904159237e+00
	6.625864378069823e-01
	3.857737509722592e-03
	4.287671729567069e-01

 1	1.000000000000000e-03
	3.299989829646349e+00
	-1.649000000000000e+00
	3.018471904159237e+00
	6.633470798916300e-01
	3.857737488982788e-03
	4.286864724509983e-01

 2	2.000000000000000e-03
	3.299989825657206e+00
	-1.648000000000000e+00
	3.018471904159237e+00
	6.641096892471630e-01
	3.857737488982772e-03
	4.286057089932863e-01

 3	3.000000000000000e-03
	3.299989821665120e+00
	-1.647000000000000e+00
	3.018471904159237e+00
	6.648727628551343e-01
	3.857737488982912e-03
	4.285249330459698e-01

 4	4.000000000000000e-03
	3.299989817667086e+00
	-1.646000000000000e+00
	3.018471904159237e+00
	6.656367777140676e-01
	3.857737488982932e-03
	4.284441306121651e-01

 5	5.000000000000000e-03
	3.299989813663189e+00
	-1.645000000000000e+00
	3.018471904159237e+00
	6.664017162334382e-01
	3.857737488982928e-03
	4.283633037585348e-01

 6	6.000000000000000e-03
	3.299989809653523e+00
	-1.644000000000000e+00
	3.018471904159237e+00
	6.671675611833587e-01
	3.857737488982924e-03
	4.282824545062335e-01

 7	7.000000000000000e-03
	3.299989805638168e+00
	-1.643000000000000e+00
	3.018471904159237e+00
	6.679342956817363e-01
	3.857737488982924e-03
	4.282015848331545e-01

 8	8.000000000000000e-03
	3.299989801617217e+00
	-1.642000000000000e+00
	3.018471904159237e+00
	6.687019031947947e-01
	3.857737488982925e-03
	4.281206966739663e-01

 9	9.000000000000001e-03
	3.299989797590748e+00
	-1.641000000000000e+00
	3.018471904159237e+00
	6.694703675357507e-01
	3.857737488982925e-03
	4.280397919204046e-01

 10	1.000000000000000e-02
	3.299989793558848e+00
	-1.640000000000000e+00
	3.018471904159237e+00
	6.702396728630802e-01
	3.857737488982925e-03
	4.279588724216214e-01

 11	1.100000000000000e-02
	3.299989789521590e+00
	-1.639000000000000e+00
	3.018471904159237e+00
	6.710098036783645e-01
	3.857737488982925e-03
	4.278779399845692e-01

 12	1.200000000000000e-02
	3.299989785479058e+00
	-1.638000000000000e+00
	3.018471904159237e+00
	6.717807448237670e-01
	3.857737488982925e-03
	4.277969963744274e-01

 13	1.300000000000000e-02
	3.299989781431329e+00
	-1.637000000000000e+00
	3.018471904159237e+00
	6.725524814791525e-01
	3.857737488982925e-03
	4.277160433150617e-01

 14	1.400000000000001e-02
	3.299989777378471e+00
	-1.636000000000000e+00
	3.018471904159237e+00
	6.733249991588895e-01
	3.857737488982925e-03
	4.276350824895273e-01

 15	1.500000000000001e-02
	3.299989773320569e+00
	-1.635000000000000e+00
	3.018471904159237e+00
	6.740982837083233e-01
	3.857737488982925e-03
	4.275541155405813e-01

 16	1.600000000000001e-02
	3.299989769257681e+00
	-1.634000000000000e+00
	3.018471904159237e+00
	6.748723212999945e-01
	3.857737488982925e-03
	4.274731440712423e-01

 17	1.700000000000001e-02
	3.299989765189887e+00
	-1.633000000000000e+00
	3.018471904159237e+00
	6.756470984295984e-01
	3.857737488982925e-03
	4.273921696453703e-01

 18	1.800000000000001e-02
	3.299989761117254e+00
	-1.632000000000000e+00
	3.018471904159237e+00
	6.764226019116967e-01
	3.857737488982925e-03
	4.273111937882608e-01

 19	1.900000000000001e-02
	3.299989757039844e+00
	-1.631000000000000e+00
	3.018471904159237e+00
	6.771988188752364e-01
	3.857737488982925e-03
	4.272302179872693e-01

 20	2.000000000000001e-02
	3.299989752957730e+00
	-1.630000000000000e+00
	3.018471904159237e+00
	6.779757367588654e-01
	3.857737488982925e-03
	4.271492436924433e-01

 21	2.100000000000001e-02
	3.299989748870971e+00
	-1.629000000000000e+00
	3.018471904159237e+00
	6.787533433060872e-01
	3.857737488982925e-03
	4.270682723171762e-01

 22	2.200000000000001e-02
	3.299989744779630e+00
	-1.628000000000000e+00
	3.018471904159237e+00
	6.795316265602738e-01
	3.857737488982925e-03
	4.269873052388758e-01

 23	2.300000000000001e-02
	3.299989740683769e+00
	-1.627000000000000e+00
	3.018471904159237e+00
	6.803105748595343e-01
	3.857737488982925e-03
	4.269063437996364e-01

 24	2.400000000000001e-02
	3.299989736583449e+00
	-1.626000000000000e+00
	3.018471904159237e+00
	6.810901768314769e-01
	3.857737488982925e-03
	4.268253893069210e-01

 25	2.500000000000002e-02
	3.299989732478724e+00
	-1.625000000000000e+00
	3.018471904159237e+00
	6.818704213878910e-01
	3.857737488982925e-03
	4.267444430342604e-01

 26	2.600000000000002e-02
	3.299989728369652e+00
	-1.624000000000000e+00
	3.018471904159237e+00
	6.826512977193252e-01
	3.857737488982925e-03
	4.266635062219404e-01

 27	2.700000000000002e-02
	3.299989724256290e+00
	-1.623000000000000e+00
	3.018471904159237e+00
	6.834327952896287e-01
	3.857737488982925e-03
	4.265825800777082e-01

 28	2.800000000000002e-02
	3.299989720138691e+00
	-1.622000000000000e+00
	3.018471904159237e+00
	6.842149038304318e-01
	3.857737488982925e-03
	4.265016657774733e-01

 29	2.900000000000002e-02
	3.299989716016907e+00
	-1.621000000000000e+00
	3.018471904159237e+00
	6.849976133355916e-01
	3.857737488982925e-03
	4.264207644660077e-01

 30	3.000000000000002e-02
	3.299989711890988e+00
	-1.620000000000000e+00
	3.018471904159237e+00
	6.857809140556257e-01
	3.857737488982925e-03
	4.263398772576498e-01

 31	3.100000000000002e-02
	3.299989707760990e+00
	-1.619000000000000e+00
	3.018471904159237e+00
	6.865647964921278e-01
	3.857737488982925e-03
	4.262590052370034e-01

 32	3.200000000000002e-02
	3.299989703626957e+00
	-1.618000000000000e+00
	3.018471904159237e+00
	6.873492513921864e-01
	3.857737488982925e-03
	4.261781494596298e-01

 33	3.300000000000002e-02
	3.299989699488939e+00
	-1.617000000000000e+00
	3.018471904159237e+00
	6.881342697428293e-01
	3.857737488982925e-03
	4.260973109527472e-01

 34	3.400000000000002e-02
	3.299989695346979e+00
	-1.616000000000000e+00
	3.018471904159237e+00
	6.889198427654650e-01
	3.857737488982925e-03
	4.260164907159070e-01

 35	3.500000000000002e-02
	3.299989691201127e+00
	-1.615000000000000e+00
	3.018471904159237e+00
	6.897059619103836e-01
	3.857737488982924e-03
	4.259356897216813e-01

 36	3.600000000000003e-02
	3.299989687051421e+00
	-1.614000000000000e+00
	3.018471904159237e+00
	6.904926188512784e-01
	3.857737488982924e-03
	4.258549089163338e-01

 37	3.700000000000003e-02
	3.299989682897913e+00
	-1.613000000000000e+00
	3.018471904159237e+00
	6.912798054798153e-01
	3.857737488982925e-03
	4.257741492204798e-01

 38	3.800000000000003e-02
	3.299989678740636e+00
	-1.612000000000000e+00
	3.018471904159237e+00
	6.920675139002656e-01
	3.857737488982925e-03
	4.256934115297483e-01

 39	3.900000000000003e-02
	3.299989674579637e+00
	-1.611000000000000e+00
	3.018471904159237e+00
	6.928557364241936e-01
	3.857737488982925e-03
	4.256126967154266e-01

 40	4.000000000000003e-02
	3.299989670414954e+00
	-1.610000000000000e+00
	3.018471904159237e+00
	6.936444655652048e-01
	3.857737488982925e-03
	4.255320056250972e-01

 41	4.100000000000003e-02
	3.299989666246626e+00
	-1.609000000000000e+00
	3.018471904159237e+00
	6.944336940337699e-01
	3.857737488982925e-03
	4.254513390832652e-01

 42	4.200000000000003e-02
	3.299989662074688e+00
	-1.608000000000000e+00
	3.018471904159237e+00
	6.952234147321198e-01
	3.857737488982925e-03
	4.253706978919735e-01

 43	4.300000000000003e-02
	3.299989657899186e+00
	-1.607000000000000e+00
	3.018471904159237e+00
	6.960136207492246e-01
	3.857737488982925e-03
	4.252900828314098e-01

 44	4.400000000000003e-02
	3.299989653720148e+00
	-1.606000000000000e+00
	3.018471904159237e+00
	6.968043053558519e-01
	3.857737488982925e-03
	4.252094946605023e-01

 45	4.500000000000003e-02
	3.299989649537612e+00
	-1.605000000000000e+00
	3.018471904159237e+00
	6.975954619997056e-01
	3.857737488982925e-03
	4.251289341174997e-01

 46	4.600000000000003e-02
	3.299989645351613e+00
	-1.604000000000000e+00
	3.018471904159237e+00
	6.983870843006570e-01
	3.857737488982925e-03
	4.250484019205417e-01

 47	4.700000000000003e-02
	3.299989641162183e+00
	-1.603000000000000e+00
	3.018471904159237e+00
	6.991791660460667e-01
	3.857737488982925e-03
	4.249678987682214e-01

 48	4.800000000000004e-02
	3.299989636969352e+00
	-1.602000000000000e+00
	3.018471904159237e+00
	6.999717011861970e-01
	3.857737488982925e-03
	4.248874253401309e-01

 49	4.900000000000004e-02
	3.299989632773161e+00
	-1.601000000000000e+00
	3.018471904159237e+00
	7.007646838297131e-01
	3.857737488982925e-03
	4.248069822973963e-01

 50	5.000000000000004e-02
	3.299989628573637e+00
	-1.600000000000000e+00
	3.018471904159237e+00
	7.015581082392833e-01
	3.857737488982925e-03
	4.247265702832010e-01

 51	5.100000000000004e-02
	3.299989624370805e+00
	-1.599000000000000e+00
	3.018471904159237e+00
	7.023519688272720e-01
	3.857737488982925e-03
	4.246461899232958e-01

 52	5.200000000000004e-02
	3.299989620164705e+00
	-1.598000000000000e+00
	3.018471904159237e+00
	7.031462601515271e-01
	3.857737488982925e-03
	4.245658418264984e-01

 53	5.300000000000004e-02
	3.299989615955356e+00
	-1.597000000000000e+00
	3.018471904159237e+00
	7.039409769112670e-01
	3.857737488982925e-03
	4.244855265851805e-01

 54	5.400000000000004e-02
	3.299989611742789e+00
	-1.596000000000000e+00
	3.018471904159237e+00
	7.047361139430569e-01
	3.857737488982925e-03
	4.244052447757408e-01

 55	5.500000000000004e-02
	3.299989607527039e+00
	-1.595000000000000e+00
	3.018471904159237e+00
	7.055316662168897e-01
	3.857737488982925e-03
	4.243249969590712e-01

 56	5.600000000000004e-02
	3.299989603308121e+00
	-1.594000000000000e+00
	3.018471904159237e+00
	7.063276288323459e-01
	3.857737488982925e-03
	4.242447836810009e-01

 57	5.700000000000004e-02
	3.299989599086071e+00
	-1.593000000000000e+00
	3.018471904159237e+00
	7.071239970148726e-01
	3.857737488982925e-03
	4.241646054727438e-01

 58	5.800000000000004e-02
	3.299989594860909e+00
	-1.592000000000000e+00
	3.018471904159237e+00
	7.079207661121304e-01
	3.857737488982925e-03
	4.240844628513186e-01

 59	5.900000000000005e-02
	3.299989590632666e+00
	-1.591000000000000e+00
	3.018471904159237e+00
	7.087179315904516e-01
	3.857737488982925e-03
	4.240043563199701e-01

 60	6.000000000000005e-02
	3.299989586401359e+00
	-1.590000000000000e+00
	3.018471904159237e+00
	7.095154890313806e-01
	3.857737488982925e-03
	4.239242863685702e-01

 61	6.100000000000005e-02
	3.299989582167021e+00
	-1.589000000000000e+00
	3.018471904159237e+00
	7.103134341283128e-01
	3.857737488982925e-03
	4.238442534740144e-01

 62	6.200000000000005e-02
	3.299989577929664e+00
	-1.588000000000000e+00
	3.018471904159237e+00
	7.111117626832124e-01
	3.857737488982925e-03
	4.237642581006011e-01

 63	6.300000000000004e-02
	3.299989573689324e+00
	-1.587000000000000e+00
	3.018471904159237e+00
	7.119104706034296e-01
	3.857737488982925e-03
	4.236843007004061e-01

 64	6.400000000000004e-02
	3.299989569446019e+00
	-1.586000000000000e+00
	3.018471904159237e+00
	7.127095538986036e-01
	3.857737488982925e-03
	4.236043817136453e-01

 65	6.500000000000004e-02
	3.299989565199761e+00
	-1.585000000000000e+00
	3.018471904159237e+00
	7.135090086776364e-01
	3.857737488982925e-03
	4.235245015690196e-01

 66	6.600000000000004e-02
	3.299989560950586e+00
	-1.584000000000000e+00
	3.018471904159237e+00
	7.143088311457754e-01
	3.857737488982925e-03
	4.234446606840635e-01

 67	6.700000000000005e-02
	3.299989556698507e+00
	-1.583000000000000e+00
	3.018471904159237e+00
	7.151090176017568e-01
	3.857737488982925e-03
	4.233648594654708e-01

 68	6.800000000000005e-02
	3.299989552443545e+00
	-1.582000000000000e+00
	3.018471904159237e+00
	7.159095644350363e-01
	3.857737488982925e-03
	4.232850983094147e-01

 69	6.900000000000005e-02
	3.299989548185720e+00
	-1.581000000000000e+00
	3.018471904159237e+00
	7.167104681231115e-01
	3.857737488982925e-03
	4.232053776018669e-01

 70	7.000000000000005e-02
	3.299989543925060e+00
	-1.580000000000000e+00
	3.018471904159237e+00
	7.175117252288975e-01
	3.857737488982925e-03
	4.231256977188904e-01

 71	7.100000000000005e-02
	3.299989539661571e+00
	-1.579000000000000e+00
	3.018471904159237e+00
	7.183133323982034e-01
	3.857737488982925e-03
	4.230460590269401e-01

 72	7.200000000000005e-02
	3.299989535395275e+00
	-1.578000000000000e+00
	3.018471904159237e+00
	7.191152863572661e-01
	3.857737488982925e-03
	4.229664618831445e-01

 73	7.300000000000005e-02
	3.299989531126201e+00
	-1.577000000000000e+00
	3.018471904159237e+00
	7.199175839103595e-01
	3.857737488982925e-03
	4.228869066355799e-01

 74	7.400000000000005e-02
	3.299989526854356e+00
	-1.576000000000000e+00
	3.018471904159237e+00
	7.207202219374871e-01
	3.857737488982925e-03
	4.228073936235431e-01

 75	7.500000000000005e-02
	3.299989522579759e+00
	-1.575000000000000e+00
	3.018471904159237e+00
	7.215231973921229e-01
	3.857737488982925e-03
	4.227279231778054e-01

 76	7.600000000000005e-02
	3.299989518302437e+00
	-1.574000000000000e+00
	3.018471904159237e+00
	7.223265072990313e-01
	3.857737488982925e-03
	4.226484956208634e-01

 77	7.700000000000005e-02
	3.299989514022394e+00
	-1.573000000000000e+00
	3.018471904159237e+00
	7.231301487521626e-01
	3.857737488982925e-03
	4.225691112671910e-01

 78	7.800000000000006e-02
	3.299989509739655e+00
	-1.572000000000000e+00
	3.018471904159237e+00
	7.239341189125882e-01
	3.857737488982925e-03
	4.224897704234648e-01

 79	7.900000000000006e-02
	3.299989505454234e+00
	-1.571000000000000e+00
	3.018471904159237e+00
	7.247384150065185e-01
	3.857737488982925e-03
	4.224104733888000e-01

 80	8.000000000000006e-02
	3.299989501166145e+00
	-1.570000000000000e+00
	3.018471904159237e+00
	7.255430343233747e-01
	3.857737488982925e-03
	4.223312204549700e-01

 81	8.100000000000006e-02
	3.299989496875404e+00
	-1.569000000000000e+00
	3.018471904159237e+00
	7.263479742139118e-01
	3.857737488982925e-03
	4.222520119066171e-01

 82	8.200000000000006e-02
	3.299989492582032e+00
	-1.568000000000000e+00
	3.018471904159237e+00
	7.271532320884161e-01
	3.857737488982925e-03
	4.221728480214677e-01

 83	8.300000000000006e-02
	3.299989488286038e+00
	-1.567000000000000e+00
	3.018471904159237e+00
	7.279588054149424e-01
	3.857737488982925e-03
	4.220937290705281e-01

 84	8.400000000000006e-02
	3.299989483987440e+00
	-1.566000000000000e+00
	3.018471904159237e+00
	7.287646917176128e-01
	3.857737488982925e-03
	4.220146553182814e-01

 85	8.500000000000006e-02
	3.299989479686256e+00
	-1.565000000000000e+00
	3.018471904159237e+00
	7.295708885749710e-01
	3.857737488982925e-03
	4.219356270228784e-01

 86	8.600000000000006e-02
	3.299989475382492e+00
	-1.564000000000000e+00
	3.018471904159237e+00
	7.303773936183751e-01
	3.857737488982925e-03
	4.218566444363147e-01

 87	8.700000000000006e-02
	3.299989471076167e+00
	-1.563000000000000e+00
	3.018471904159237e+00
	7.311842045304605e-01
	3.857737488982925e-03
	4.217777078046165e-01

 88	8.800000000000006e-02
	3.299989466767295e+00
	-1.562000000000000e+00
	3.018471904159237e+00
	7.319913190436257e-01
	3.857737488982924e-03
	4.216988173680015e-01

 89	8.900000000000007e-02
	3.299989462455887e+00
	-1.561000000000000e+00
	3.018471904159237e+00
	7.327987349385930e-01
	3.857737488982924e-03
	4.216199733610567e-01

 90	9.000000000000007e-02
	3.299989458141961e+00
	-1.560000000000000e+00
	3.018471904159237e+00
	7.336064500429870e-01
	3.857737488982924e-03
	4.215411760128879e-01

 91	9.100000000000007e-02
	3.299989453825527e+00
	-1.559000000000000e+00
	3.018471904159237e+00
	7.344144622299785e-01
	3.857737488982925e-03
	4.214624255472838e-01

 92	9.200000000000007e-02
	3.299989449506596e+00
	-1.558000000000000e+00
	3.018471904159237e+00
	7.352227694169622e-01
	3.857737488982924e-03
	4.213837221828639e-01

 93	9.300000000000007e-02
	3.299989445185184e+00
	-1.557000000000000e+00
	3.018471904159237e+00
	7.360313695642706e-01
	3.857737488982924e-03
	4.213050661332217e-01

 94	9.400000000000007e-02
	3.299989440861307e+00
	-1.556000000000000e+00
	3.018471904159237e+00
	7.368402606739400e-01
	3.857737488982925e-03
	4.212264576070695e-01

 95	9.500000000000007e-02
	3.299989436534966e+00
	-1.555000000000000e+00
	3.018471904159237e+00
	7.376494407885078e-01
	3.857737488982925e-03
	4.211478968083746e-01

 96	9.600000000000007e-02
	3.299989432206186e+00
	-1.554000000000000e+00
	3.018471904159237e+00
	7.384589079898485e-01
	3.857737488982924e-03
	4.210693839364910e-01

 97	9.700000000000007e-02
	3.299989427874967e+00
	-1.553000000000000e+00
	3.018471904159237e+00
	7.392686603980468e-01
	3.857737488982925e-03
	4.209909191862882e-01

 98	9.800000000000007e-02
	3.299989423541334e+00
	-1.552000000000000e+00
	3.018471904159237e+00
	7.400786961703049e-01
	3.857737488982924e-03
	4.209125027482735e-01

 99	9.900000000000007e-02
	3.299989419205287e+00
	-1.551000000000000e+00
	3.018471904159237e+00
	7.408890134998865e-01
	3.857737488982925e-03
	4.208341348087139e-01

 100	1.000000000000001e-01
	3.299989414866844e+00
	-1.550000000000000e+00
	3.018471904159237e+00
	7.416996106150965e-01
	3.857737488982925e-03
	4.207558155497542e-01

 101	1.010000000000001e-01
	3.299989410526014e+00
	-1.549000000000000e+00
	3.018471904159237e+00
	7.425104857782797e-01
	3.857737488982925e-03
	4.206775451495244e-01

 102	1.020000000000001e-01
	3.299989406182807e+00
	-1.548000000000000e+00
	3.018471904159237e+00
	7.433216372848693e-01
	3.857737488982925e-03
	4.205993237822535e-01

 103	1.030000000000001e-01
	3.299989401837236e+00
	-1.547000000000000e+00
	3.018471904159237e+00
	7.441330634624526e-01
	3.857737488982925e-03
	4.205211516183733e-01

 104	1.040000000000001e-01
	3.299989397489311e+00
	-1.546000000000000e+00
	3.018471904159237e+00
	7.449447626698715e-01
	3.857737488982925e-03
	4.204430288246225e-01

 105	1.050000000000001e-01
	3.299989393139044e+00
	-1.545000000000000e+00
	3.018471904159237e+00
	7.457567332963432e-01
	3.857737488982925e-03
	4.203649555641403e-01

 106	1.060000000000001e-01
	3.299989388786444e+00
	-1.544000000000000e+00
	3.018471904159237e+00
	7.465689737606227e-01
	3.857737488982925e-03
	4.202869319965687e-01

 107	1.070000000000001e-01
	3.299989384431522e+00
	-1.543000000000000e+00
	3.018471904159237e+00
	7.473814825101796e-01
	3.857737488982925e-03
	4.202089582781422e-01

 108	1.080000000000001e-01
	3.299989380074285e+00
	-1.542000000000000e+00
	3.018471904159237e+00
	7.481942580204045e-01
	3.857737488982925e-03
	4.201310345617782e-01

 109	1.090000000000001e-01
	3.299989375714753e+00
	-1.541000000000000e+00
	3.018471904159237e+00
	7.490072987938374e-01
	3.857737488982925e-03
	4.200531609971623e-01

 110	1.100000000000001e-01
	3.299989371352920e+00
	-1.540000000000000e+00
	3.018471904159237e+00
	7.498206033594326e-01
	3.857737488982925e-03
	4.199753377308380e-01

 111	1.110000000000001e-01
	3.299989366988808e+00
	-1.539000000000000e+00
	3.018471904159237e+00
	7.506341702718230e-01
	3.857737488982925e-03
	4.198975649062808e-01

 112	1.120000000000001e-01
	3.299989362622428e+00
	-1.538000000000000e+00
	3.018471904159237e+00
	7.514479981106317e-01
	3.857737488982925e-03
	4.198198426639829e-01

 113	1.130000000000001e-01
	3.299989358253783e+00
	-1.537000000000000e+00
	3.018471904159237e+00
	7.522620854797886e-01
	3.857737488982925e-03
	4.197421711415271e-01

 114	1.140000000000001e-01
	3.299989353882885e+00
	-1.536000000000000e+00
	3.018471904159237e+00
	7.530764310068812e-01
	3.857737488982925e-03
	4.196645504736651e-01

 115	1.150000000000001e-01
	3.299989349509741e+00
	-1.535000000000000e+00
	3.018471904159237e+00
	7.538910333425063e-01
	3.857737488982925e-03
	4.195869807923815e-01

 116	1.160000000000001e-01
	3.299989345134361e+00
	-1.534000000000000e+00
	3.018471904159237e+00
	7.547058911596671e-01
	3.857737488982925e-03
	4.195094622269726e-01

 117	1.170000000000001e-01
	3.299989340756758e+00
	-1.533000000000000e+00
	3.018471904159237e+00
	7.555210031531666e-01
	3.857737488982925e-03
	4.194319949041077e-01

 118	1.180000000000001e-01
	3.299989336376938e+00
	-1.532000000000000e+00
	3.018471904159237e+00
	7.563363680390305e-01
	3.857737488982925e-03
	4.193545789478957e-01

 119	1.190000000000001e-01
	3.299989331994910e+00
	-1.531000000000000e+00
	3.018471904159237e+00
	7.571519845539478e-01
	3.857737488982926e-03
	4.192772144799498e-01

 120	1.200000000000001e-01
	3.299989327610687e+00
	-1.530000000000000e+00
	3.018471904159237e+00
	7.579678514547258e-01
	3.857737488982926e-03
	4.191999016194484e-01

 121	1.210000000000001e-01
	3.299989323224269e+00
	-1.529000000000000e+00
	3.018471904159237e+00
	7.587839675177667e-01
	3.857737488982925e-03
	4.191226404831964e-01

 122	1.220000000000001e-01
	3.299989318835672e+00
	-1.528000000000000e+00
	3.018471904159237e+00
	7.596003315385477e-01
	3.857737488982924e-03
	4.190454311856778e-01

 123	1.230000000000001e-01
	3.299989314444906e+00
	-1.527000000000000e+00
	3.018471904159237e+00
	7.604169423311323e-01
	3.857737488982924e-03
	4.189682738391165e-01

 124	1.240000000000001e-01
	3.299989310051972e+00
	-1.526000000000000e+00
	3.018471904159237e+00
	7.612337987276856e-01
	3.857737488982924e-03
	4.188911685535259e-01

 125	1.250000000000001e-01
	3.299989305656885e+00
	-1.525000000000000e+00
	3.018471904159237e+00
	7.620508995780180e-01
	3.857737488982924e-03
	4.188141154367702e-01

 126	1.260000000000001e-01
	3.299989301259653e+00
	-1.524000000000000e+00
	3.018471904159237e+00
	7.628682437491227e-01
	3.857737488982925e-03
	4.187371145946066e-01

 127	1.270000000000001e-01
	3.299989296860274e+00
	-1.523000000000000e+00
	3.018471904159237e+00
	7.636858301247373e-01
	3.857737488982925e-03
	4.186601661307352e-01

 128	1.280000000000001e-01
	3.299989292458776e+00
	-1.522000000000000e+00
	3.018471904159237e+00
	7.645036576049276e-01
	3.857737488982924e-03
	4.185832701468513e-01

 129	1.290000000000001e-01
	3.299989288055144e+00
	-1.521000000000000e+00
	3.018471904159237e+00
	7.653217251056708e-01
	3.857737488982924e-03
	4.185064267426912e-01

 130	1.300000000000001e-01
	3.299989283649406e+00
	-1.520000000000000e+00
	3.018471904159237e+00
	7.661400315584563e-01
	3.857737488982925e-03
	4.184296360160747e-01

 131	1.310000000000001e-01
	3.299989279241560e+00
	-1.519000000000000e+00
	3.018471904159237e+00
	7.669585759098955e-01
	3.857737488982925e-03
	4.183528980629498e-01

 132	1.320000000000001e-01
	3.299989274831617e+00
	-1.518000000000000e+00
	3.018471904159237e+00
	7.677773571213475e-01
	3.857737488982925e-03
	4.182762129774339e-01

 133	1.330000000000001e-01
	3.299989270419578e+00
	-1.517000000000000e+00
	3.018471904159237e+00
	7.685963741685604e-01
	3.857737488982925e-03
	4.181995808518607e-01

 134	1.340000000000001e-01
	3.299989266005463e+00
	-1.516000000000000e+00
	3.018471904159237e+00
	7.694156260413042e-01
	3.857737488982925e-03
	4.181230017768109e-01

 135	1.350000000000001e-01
	3.299989261589270e+00
	-1.515000000000000e+00
	3.018471904159237e+00
	7.702351117430405e-01
	3.857737488982925e-03
	4.180464758411601e-01

 136	1.360000000000001e-01
	3.299989257171010e+00
	-1.514000000000000e+00
	3.018471904159237e+00
	7.710548302905789e-01
	3.857737488982925e-03
	4.179700031321081e-01

 137	1.370000000000001e-01
	3.299989252750690e+00
	-1.513000000000000e+00
	3.018471904159237e+00
	7.718747807137589e-01
	3.857737488982925e-03
	4.178935837352215e-01

 138	1.380000000000001e-01
	3.299989248328318e+00
	-1.512000000000000e+00
	3.018471904159237e+00
	7.726949620551352e-01
	3.857737488982925e-03
	4.178172177344661e-01

 139	1.390000000000001e-01
	3.299989243903904e+00
	-1.511000000000000e+00
	3.018471904159237e+00
	7.735153733696717e-01
	3.857737488982925e-03
	4.177409052122426e-01

 140	1.400000000000001e-01
	3.299989239477450e+00
	-1.510000000000000e+00
	3.018471904159237e+00
	7.743360137244467e-01
	3.857737488982925e-03
	4.176646462494192e-01

 141	1.410000000000001e-01
	3.299989235048969e+00
	-1.509000000000000e+00
	3.018471904159237e+00
	7.751568821983661e-01
	3.857737488982925e-03
	4.175884409253656e-01

 142	1.420000000000001e-01
	3.299989230618463e+00
	-1.508000000000000e+00
	3.018471904159237e+00
	7.759779778818771e-01
	3.857737488982924e-03
	4.175122893179779e-01

 143	1.430000000000001e-01
	3.299989226185941e+00
	-1.507000000000000e+00
	3.018471904159237e+00
	7.767992998767128e-01
	3.857737488982924e-03
	4.174361915037216e-01

 144	1.440000000000001e-01
	3.299989221751414e+00
	-1.506000000000000e+00
	3.018471904159237e+00
	7.776208472956117e-01
	3.857737488982926e-03
	4.173601475576474e-01

 145	1.450000000000001e-01
	3.299989217314883e+00
	-1.505000000000000e+00
	3.018471904159237e+00
	7.784426192620723e-01
	3.857737488982926e-03
	4.172841575534288e-01

 146	1.460000000000001e-01
	3.299989212876363e+00
	-1.504000000000000e+00
	3.018471904159237e+00
	7.792646149101067e-01
	3.857737488982925e-03
	4.172082215633895e-01

 147	1.470000000000001e-01
	3.299989208435854e+00
	-1.503000000000000e+00
	3.018471904159237e+00
	7.800868333839918e-01
	3.857737488982924e-03
	4.171323396585275e-01

 148	1.480000000000001e-01
	3.299989203993368e+00
	-1.502000000000000e+00
	3.018471904159237e+00
	7.809092738380374e-01
	3.857737488982925e-03
	4.170565119085400e-01

 149	1.490000000000001e-01
	3.299989199548909e+00
	-1.501000000000000e+00
	3.018471904159237e+00
	7.817319354363642e-01
	3.857737488982925e-03
	4.169807383818559e-01

 150	1.500000000000001e-01
	3.299989195102482e+00
	-1.500000000000000e+00
	3.018471904159237e+00
	7.825548173526736e-01
	3.857737488982925e-03
	4.169050191456526e-01

 151	1.510000000000001e-01
	3.299989190654101e+00
	-1.499000000000000e+00
	3.018471904159237e+00
	7.833779187700454e-01
	3.857737488982925e-03
	4.168293542658897e-01

 152	1.520000000000001e-01
	3.299989186203765e+00
	-1.498000000000000e+00
	3.018471904159237e+00
	7.842012388807141e-01
	3.857737488982925e-03
	4.167537438073224e-01

 153	1.530000000000001e-01
	3.299989181751484e+00
	-1.497000000000000e+00
	3.018471904159237e+00
	7.850247768858739e-01
	3.857737488982925e-03
	4.166781878335287e-01

 154	1.540000000000001e-01
	3.299989177297266e+00
	-1.496000000000000e+00
	3.018471904159237e+00
	7.858485319954873e-01
	3.857737488982926e-03
	4.166026864069378e-01

 155	1.550000000000001e-01
	3.299989172841118e+00
	-1.495000000000000e+00
	3.018471904159237e+00
	7.866725034280770e-01
	3.857737488982925e-03
	4.165272395888381e-01

 156	1.560000000000001e-01
	3.299989168383045e+00
	-1.494000000000000e+00
	3.018471904159237e+00
	7.874966904105538e-01
	3.857737488982925e-03
	4.164518474394104e-01

 157	1.570000000000001e-01
	3.299989163923051e+00
	-1.493000000000000e+00
	3.018471904159237e+00
	7.883210921780325e-01
	3.857737488982925e-03
	4.163765100177450e-01

 158	1.580000000000001e-01
	3.299989159461153e+00
	-1.492000000000000e+00
	3.018471904159237e+00
	7.891457079736501e-01
	3.857737488982925e-03
	4.163012273818583e-01

 159	1.590000000000001e-01
	3.299989154997347e+00
	-1.491000000000000e+00
	3.018471904159237e+00
	7.899705370483967e-01
	3.857737488982925e-03
	4.162259995887137e-01

 160	1.600000000000001e-01
	3.299989150531643e+00
	-1.490000000000000e+00
	3.018471904159237e+00
	7.907955786609530e-01
	3.857737488982925e-03
	4.161508266942439e-01

 161	1.610000000000001e-01
	3.299989146064049e+00
	-1.489000000000000e+00
	3.018471904159237e+00
	7.916208320775243e-01
	3.857737488982925e-03
	4.160757087533659e-01

 162	1.620000000000001e-01
	3.299989141594569e+00
	-1.488000000000000e+00
	3.018471904159237e+00
	7.924462965716792e-01
	3.857737488982925e-03
	4.160006458199973e-01

 163	1.630000000000001e-01
	3.299989137123213e+00
	-1.487000000000000e+00
	3.018471904159237e+00
	7.932719714242000e-01
	3.857737488982926e-03
	4.159256379470752e-01

 164	1.640000000000001e-01
	3.299989132649982e+00
	-1.486000000000000e+00
	3.018471904159237e+00
	7.940978559229407e-01
	3.857737488982925e-03
	4.158506851865794e-01

 165	1.650000000000001e-01
	3.299989128174888e+00
	-1.485000000000000e+00
	3.018471904159237e+00
	7.949239493626618e-01
	3.857737488982926e-03
	4.157757875895348e-01

 166	1.660000000000001e-01
	3.299989123697937e+00
	-1.484000000000000e+00
	3.018471904159237e+00
	7.957502510449105e-01
	3.857737488982927e-03
	4.157009452060429e-01

 167	1.670000000000001e-01
	3.299989119219129e+00
	-1.483000000000000e+00
	3.018471904159237e+00
	7.965767602778677e-01
	3.857737488982926e-03
	4.156261580852851e-01

 168	1.680000000000001e-01
	3.299989114738480e+00
	-1.482000000000000e+00
	3.018471904159237e+00
	7.974034763762198e-01
	3.857737488982926e-03
	4.155514262755441e-01

 169	1.690000000000001e-01
	3.299989110255987e+00
	-1.481000000000000e+00
	3.018471904159237e+00
	7.982303986610323e-01
	3.857737488982926e-03
	4.154767498242209e-01

 170	1.700000000000001e-01
	3.299989105771662e+00
	-1.480000000000000e+00
	3.018471904159237e+00
	7.990575264596100e-01
	3.857737488982926e-03
	4.154021287778392e-01

 171	1.710000000000001e-01
	3.299989101285511e+00
	-1.479000000000000e+00
	3.018471904159237e+00
	7.998848591053851e-01
	3.857737488982926e-03
	4.153275631820701e-01

 172	1.720000000000001e-01
	3.299989096797538e+00
	-1.478000000000000e+00
	3.018471904159237e+00
	8.007123959377965e-01
	3.857737488982926e-03
	4.152530530817429e-01

 173	1.730000000000001e-01
	3.299989092307753e+00
	-1.477000000000000e+00
	3.018471904159237e+00
	8.015401363021588e-01
	3.857737488982926e-03
	4.151785985208511e-01

 174	1.740000000000001e-01
	3.299989087816156e+00
	-1.476000000000000e+00
	3.018471904159237e+00
	8.023680795495679e-01
	3.857737488982927e-03
	4.151041995425784e-01

 175	1.750000000000001e-01
	3.299989083322757e+00
	-1.475000000000000e+00
	3.018471904159237e+00
	8.031962250367680e-01
	3.857737488982927e-03
	4.150298561892961e-01

 176	1.760000000000001e-01
	3.299989078827565e+00
	-1.474000000000000e+00
	3.018471904159237e+00
	8.040245721260659e-01
	3.857737488982926e-03
	4.149555685025920e-01

 177	1.770000000000001e-01
	3.299989074330580e+00
	-1.473000000000000e+00
	3.018471904159237e+00
	8.048531201852045e-01
	3.857737488982926e-03
	4.148813365232671e-01

 178	1.780000000000001e-01
	3.299989069831811e+00
	-1.472000000000000e+00