Title: *inverter based oscillation frequency
Date: Tue Nov 27 20:39:17  2012
Plotname: Transient Analysis
Flags: real
No. Variables: 2
No. Points: 70008   
Variables:
	0	time	time
	1	v(in)	voltage
Values:
0		0.000000000000000e+00
	1.200000000000000e+00
1		1.000000000000000e-12
	1.199999778075302e+00
2		2.000000000000000e-12
	1.199999559917273e+00
3		4.000000000000001e-12
	1.199999130705241e+00
4		8.000000000000001e-12
	1.199998310312995e+00
5		1.600000000000000e-11
	1.199996784723557e+00
6		3.200000000000001e-11
	1.199994007613550e+00
7		6.400000000000001e-11
	1.199988883353869e+00
8		1.280000000000000e-10
	1.199978974216986e+00
9		2.280000000000000e-10
	1.199963595285197e+00
10		3.280000000000001e-10
	1.199948307912855e+00
11		4.280000000000001e-10
	1.199933094369141e+00
12		5.280000000000000e-10
	1.199917937212087e+00
13		6.280000000000000e-10
	1.199902824703155e+00
14		7.280000000000000e-10
	1.199887747023351e+00
15		8.279999999999999e-10
	1.199872696918368e+00
16		9.279999999999999e-10
	1.199857668613052e+00
17		1.028000000000000e-09
	1.199842657692062e+00
18		1.128000000000000e-09
	1.199827660688758e+00
19		1.228000000000000e-09
	1.199812674915088e+00
20		1.328000000000000e-09
	1.199797698265193e+00
21		1.428000000000000e-09
	1.199782729094338e+00
22		1.528000000000000e-09
	1.199767766111882e+00
23		1.628000000000000e-09
	1.199752808304925e+00
24		1.728000000000000e-09
	1.199737854876335e+00
25		1.828000000000001e-09
	1.199722905198042e+00
26		1.928000000000000e-09
	1.199707958774147e+00
27		2.028000000000000e-09
	1.199693015212508e+00
28		2.128000000000001e-09
	1.199678074202455e+00
29		2.228000000000001e-09
	1.199663135497452e+00
30		2.328000000000001e-09
	1.199648198901505e+00
31		2.428000000000001e-09
	1.199633264258529e+00
32		2.528000000000001e-09
	1.199618331443990e+00
33		2.628000000000001e-09
	1.199603400358341e+00
34		2.728000000000001e-09
	1.199588470921853e+00
35		2.828000000000001e-09
	1.199573543070537e+00
36		2.928000000000001e-09
	1.199558616752921e+00
37		3.028000000000001e-09
	1.199543691927504e+00
38		3.128000000000001e-09
	1.199528768560740e+00
39		3.228000000000001e-09
	1.199513846625430e+00
40		3.328000000000001e-09
	1.199498926099458e+00
41		3.428000000000001e-09
	1.199484006964769e+00
42		3.528000000000001e-09
	1.199469089206576e+00
43		3.628000000000002e-09
	1.199454172812705e+00
44		3.728000000000001e-09
	1.199439257773090e+00
45		3.828000000000001e-09
	1.199424344079356e+00
46		3.928000000000001e-09
	1.199409431724495e+00
47		4.028000000000001e-09
	1.199394520702599e+00
48		4.128000000000001e-09
	1.199379611008655e+00
49		4.228000000000002e-09
	1.199364702638367e+00
50		4.328000000000002e-09
	1.199349795588027e+00
51		4.428000000000002e-09
	1.199334889854396e+00
52		4.528000000000002e-09
	1.199319985434627e+00
53		4.628000000000002e-09
	1.199305082326187e+00
54		4.728000000000002e-09
	1.199290180526796e+00
55		4.828000000000002e-09
	1.199275280034390e+00
56		4.928000000000002e-09
	1.199260380847074e+00
57		5.028000000000002e-09
	1.199245482963099e+00
58		5.128000000000002e-09
	1.199230586380831e+00
59		5.228000000000002e-09
	1.199215691098733e+00
60		5.328000000000002e-09
	1.199200797115351e+00
61		5.428000000000002e-09
	1.199185904429300e+00
62		5.528000000000002e-09
	1.199171013039251e+00
63		5.628000000000002e-09
	1.199156122943922e+00
64		5.728000000000003e-09
	1.199141234142075e+00
65		5.828000000000003e-09
	1.199126346632508e+00
66		5.928000000000003e-09
	1.199111460414048e+00
67		6.028000000000003e-09
	1.199096575485546e+00
68		6.128000000000003e-09
	1.199081691845884e+00
69		6.228000000000003e-09
	1.199066809493959e+00
70		6.328000000000003e-09
	1.199051928428688e+00
71		6.428000000000003e-09
	1.199037048649004e+00
72		6.528000000000003e-09
	1.199022170153859e+00
73		6.628000000000003e-09
	1.199007292942217e+00
74		6.728000000000003e-09
	1.198992417013055e+00
75		6.828000000000003e-09
	1.198977542365363e+00
76		6.928000000000003e-09
	1.198962668998142e+00
77		7.028000000000003e-09
	1.198947796910403e+00
78		7.128000000000004e-09
	1.198932926101171e+00
79		7.228000000000004e-09
	1.198918056569477e+00
80		7.328000000000004e-09
	1.198903188314362e+00
81		7.428000000000004e-09
	1.198888321334880e+00
82		7.528000000000003e-09
	1.198873455630089e+00
83		7.628000000000002e-09
	1.198858591199061e+00
84		7.728000000000001e-09
	1.198843728040874e+00
85		7.828000000000001e-09
	1.198828866154613e+00
86		7.928000000000000e-09
	1.198814005539373e+00
87		8.027999999999999e-09
	1.198799146194258e+00
88		8.127999999999998e-09
	1.198784288118376e+00
89		8.227999999999998e-09
	1.198769431310845e+00
90		8.327999999999997e-09
	1.198754575770792e+00
91		8.427999999999996e-09
	1.198739721497349e+00
92		8.527999999999995e-09
	1.198724868489655e+00
93		8.627999999999995e-09
	1.198710016746860e+00
94		8.727999999999994e-09
	1.198695166268118e+00
95		8.827999999999993e-09
	1.198680317052590e+00
96		8.927999999999992e-09
	1.198665469099444e+00
97		9.027999999999992e-09
	1.198650622407855e+00
98		9.127999999999991e-09
	1.198635776977008e+00
99		9.227999999999990e-09
	1.198620932806090e+00
100		9.327999999999989e-09
	1.198606089894295e+00
101		9.427999999999989e-09
	1.198591248240826e+00
102		9.527999999999988e-09
	1.198576407844891e+00
103		9.627999999999987e-09
	1.198561568705702e+00
104		9.727999999999986e-09
	1.198546730822483e+00
105		9.827999999999986e-09
	1.198531894194459e+00
106		9.927999999999985e-09
	1.198517058820863e+00
107		1.002799999999998e-08
	1.198502224700935e+00
108		1.012799999999998e-08
	1.198487391833918e+00
109		1.022799999999998e-08
	1.198472560219062e+00
110		1.032799999999998e-08
	1.198457729855625e+00
111		1.042799999999998e-08
	1.198442900742866e+00
112		1.052799999999998e-08
	1.198428072880055e+00
113		1.062799999999998e-08
	1.198413246266465e+00
114		1.072799999999998e-08
	1.198398420901374e+00
115		1.082799999999998e-08
	1.198383596784066e+00
116		1.092799999999998e-08
	1.198368773913829e+00
117		1.102799999999998e-08
	1.198353952289960e+00
118		1.112799999999998e-08
	1.198339131911758e+00
119		1.122799999999997e-08
	1.198324312778528e+00
120		1.132799999999997e-08
	1.198309494889579e+00
121		1.142799999999997e-08
	1.198294678244226e+00
122		1.152799999999997e-08
	1.198279862841787e+00
123		1.162799999999997e-08
	1.198265048681591e+00
124		1.172799999999997e-08
	1.198250235762966e+00
125		1.182799999999997e-08
	1.198235424085248e+00
126		1.192799999999997e-08
	1.198220613647773e+00
127		1.202799999999997e-08
	1.198205804449887e+00
128		1.212799999999997e-08
	1.198190996490938e+00
129		1.222799999999997e-08
	1.198176189770279e+00
130		1.232799999999997e-08
	1.198161384287267e+00
131		1.242799999999997e-08
	1.198146580041265e+00
132		1.252799999999997e-08
	1.198131777031639e+00
133		1.262799999999996e-08
	1.198116975257758e+00
134		1.272799999999996e-08
	1.198102174718998e+00
135		1.282799999999996e-08
	1.198087375414739e+00
136		1.292799999999996e-08
	1.198072577344363e+00
137		1.302799999999996e-08
	1.198057780507259e+00
138		1.312799999999996e-08
	1.198042984902816e+00
139		1.322799999999996e-08
	1.198028190530432e+00
140		1.332799999999996e-08
	1.198013397389506e+00
141		1.342799999999996e-08
	1.197998605479440e+00
142		1.352799999999996e-08
	1.197983814799643e+00
143		1.362799999999996e-08
	1.197969025349523e+00
144		1.372799999999996e-08
	1.197954237128498e+00
145		1.382799999999996e-08
	1.197939450135985e+00
146		1.392799999999995e-08
	1.197924664371407e+00
147		1.402799999999995e-08
	1.197909879834191e+00
148		1.412799999999995e-08
	1.197895096523764e+00
149		1.422799999999995e-08
	1.197880314439561e+00
150		1.432799999999995e-08
	1.197865533581017e+00
151		1.442799999999995e-08
	1.197850753947573e+00
152		1.452799999999995e-08
	1.197835975538673e+00
153		1.462799999999995e-08
	1.197821198353763e+00
154		1.472799999999995e-08
	1.197806422392294e+00
155		1.482799999999995e-08
	1.197791647653718e+00
156		1.492799999999995e-08
	1.197776874137493e+00
157		1.502799999999995e-08
	1.197762101843078e+00
158		1.512799999999995e-08
	1.197747330769937e+00
159		1.522799999999995e-08
	1.197732560917536e+00
160		1.532799999999995e-08
	1.197717792285344e+00
161		1.542799999999995e-08
	1.197703024872834e+00
162		1.552799999999995e-08
	1.197688258679480e+00
163		1.562799999999995e-08
	1.197673493704762e+00
164		1.572799999999995e-08
	1.197658729948160e+00
165		1.582799999999995e-08
	1.197643967409160e+00
166		1.592799999999996e-08
	1.197629206087248e+00
167		1.602799999999996e-08
	1.197614445981914e+00
168		1.612799999999996e-08
	1.197599687092651e+00
169		1.622799999999996e-08
	1.197584929418955e+00
170		1.632799999999996e-08
	1.197570172960324e+00
171		1.642799999999996e-08
	1.197555417716260e+00
172		1.652799999999996e-08
	1.197540663686266e+00
173		1.662799999999996e-08
	1.197525910869850e+00
174		1.672799999999996e-08
	1.197511159266520e+00
175		1.682799999999996e-08
	1.197496408875786e+00
176		1.692799999999996e-08
	1.197481659697164e+00
177		1.702799999999997e-08
	1.197466911730170e+00
178		1.712799999999997e-08
	1.197452164974322e+00
179		1.722799999999997e-08
	1.197437419429143e+00
180		1.732799999999997e-08
	1.197422675094158e+00
181		1.742799999999997e-08
	1.197407931968891e+00
182		1.752799999999997e-08
	1.197393190052874e+00
183		1.762799999999997e-08
	1.197378449345636e+00
184		1.772799999999997e-08
	1.197363709846712e+00
185		1.782799999999997e-08
	1.197348971555636e+00
186		1.792799999999997e-08
	1.197334234471946e+00
187		1.802799999999997e-08
	1.197319498595184e+00
188		1.812799999999998e-08
	1.197304763924892e+00
189		1.822799999999998e-08
	1.197290030460614e+00
190		1.832799999999998e-08
	1.197275298201898e+00
191		1.842799999999998e-08
	1.197260567148291e+00
192		1.852799999999998e-08
	1.197245837299345e+00
193		1.862799999999998e-08
	1.197231108654614e+00
194		1.872799999999998e-08
	1.197216381213653e+00
195		1.882799999999998e-08
	1.197201654976019e+00
196		1.892799999999998e-08
	1.197186929941271e+00
197		1.902799999999998e-08
	1.197172206108970e+00
198		1.912799999999998e-08
	1.197157483478679e+00
199		1.922799999999999e-08
	1.197142762049963e+00
200		1.932799999999999e-08
	1.197128041822389e+00
201		1.942799999999999e-08
	1.197113322795527e+00
202		1.952799999999999e-08
	1.197098604968946e+00
203		1.962799999999999e-08
	1.197083888342220e+00
204		1.972799999999999e-08
	1.197069172914924e+00
205		1.982799999999999e-08
	1.197054458686633e+00
206		1.992799999999999e-08
	1.197039745656924e+00
207		2.002799999999999e-08
	1.197025033825379e+00
208		2.012799999999999e-08
	1.197010323191578e+00
209		2.022799999999999e-08
	1.196995613755104e+00
210		2.032800000000000e-08
	1.196980905515543e+00
211		2.042800000000000e-08
	1.196966198472481e+00
212		2.052800000000000e-08
	1.196951492625506e+00
213		2.062800000000000e-08
	1.196936787974208e+00
214		2.072800000000000e-08
	1.196922084518178e+00
215		2.082800000000000e-08
	1.196907382257011e+00
216		2.092800000000000e-08
	1.196892681190300e+00
217		2.102800000000000e-08
	1.196877981317641e+00
218		2.112800000000000e-08
	1.196863282638632e+00
219		2.122800000000000e-08
	1.196848585152871e+00
220		2.132800000000000e-08
	1.196833888859961e+00
221		2.142800000000000e-08
	1.196819193759504e+00
222		2.152800000000001e-08
	1.196804499851102e+00
223		2.162800000000001e-08
	1.196789807134362e+00
224		2.172800000000001e-08
	1.196775115608890e+00
225		2.182800000000001e-08
	1.196760425274293e+00
226		2.192800000000001e-08
	1.196745736130183e+00
227		2.202800000000001e-08
	1.196731048176168e+00
228		2.212800000000001e-08
	1.196716361411862e+00
229		2.222800000000001e-08
	1.196701675836877e+00
230		2.232800000000001e-08
	1.196686991450830e+00
231		2.242800000000001e-08
	1.196672308253334e+00
232		2.252800000000001e-08
	1.196657626244010e+00
233		2.262800000000002e-08
	1.196642945422475e+00
234		2.272800000000002e-08
	1.196628265788350e+00
235		2.282800000000002e-08
	1.196613587341255e+00
236		2.292800000000002e-08
	1.196598910080814e+00
237		2.302800000000002e-08
	1.196584234006650e+00
238		2.312800000000002e-08
	1.196569559118389e+00
239		2.322800000000002e-08
	1.196554885415654e+00
240		2.332800000000002e-08
	1.196540212898076e+00
241		2.342800000000002e-08
	1.196525541565283e+00
242		2.352800000000002e-08
	1.196510871416904e+00
243		2.362800000000002e-08
	1.196496202452570e+00
244		2.372800000000003e-08
	1.196481534671913e+00
245		2.382800000000003e-08
	1.196466868074566e+00
246		2.392800000000003e-08
	1.196452202660165e+00
247		2.402800000000003e-08
	1.196437538428344e+00
248		2.412800000000003e-08
	1.196422875378738e+00
249		2.422800000000003e-08
	1.196408213510987e+00
250		2.432800000000003e-08
	1.196393552824728e+00
251		2.442800000000003e-08
	1.196378893319602e+00
252		2.452800000000003e-08
	1.196364234995248e+00
253		2.462800000000003e-08
	1.196349577851309e+00
254		2.472800000000003e-08
	1.196334921887428e+00
255		2.482800000000004e-08
	1.196320267103249e+00
256		2.492800000000004e-08
	1.196305613498416e+00
257		2.502800000000004e-08
	1.196290961072574e+00
258		2.512800000000004e-08
	1.196276309825371e+00
259		2.522800000000004e-08
	1.196261659756455e+00
260		2.532800000000004e-08
	1.196247010865473e+00
261		2.542800000000004e-08
	1.196232363152076e+00
262		2.552800000000004e-08
	1.196217716615914e+00
263		2.562800000000004e-08
	1.196203071256636e+00
264		2.572800000000004e-08
	1.196188427073898e+00
265		2.582800000000004e-08
	1.196173784067351e+00
266		2.592800000000005e-08
	1.196159142236649e+00
267		2.602800000000005e-08
	1.196144501581448e+00
268		2.612800000000005e-08
	1.196129862101405e+00
269		2.622800000000005e-08
	1.196115223796174e+00
270		2.632800000000005e-08
	1.196100586665415e+00
271		2.642800000000005e-08
	1.196085950708785e+00
272		2.652800000000005e-08
	1.196071315925944e+00
273		2.662800000000005e-08
	1.196056682316550e+00
274		2.672800000000005e-08
	1.196042049880266e+00
275		2.682800000000005e-08
	1.196027418616751e+00
276		2.692800000000005e-08
	1.196012788525669e+00
277		2.702800000000006e-08
	1.195998159606684e+00
278		2.712800000000006e-08
	1.195983531859460e+00
279		2.722800000000006e-08
	1.195968905283660e+00
280		2.732800000000006e-08
	1.195954279878951e+00
281		2.742800000000006e-08
	1.195939655644999e+00
282		2.752800000000006e-08
	1.195925032581472e+00
283		2.762800000000006e-08
	1.195910410688035e+00
284		2.772800000000006e-08
	1.195895789964357e+00
285		2.782800000000006e-08
	1.195881170410110e+00
286		2.792800000000006e-08
	1.195866552024961e+00
287		2.802800000000006e-08
	1.195851934808583e+00
288		2.812800000000006e-08
	1.195837318760646e+00
289		2.822800000000007e-08
	1.195822703880822e+00
290		2.832800000000007e-08
	1.195808090168785e+00
291		2.842800000000007e-08
	1.195793477624206e+00
292		2.852800000000007e-08
	1.195778866246760e+00
293		2.862800000000007e-08
	1.195764256036122e+00
294		2.872800000000007e-08
	1.195749646991968e+00
295		2.882800000000007e-08
	1.195735039113972e+00
296		2.892800000000007e-08
	1.195720432401812e+00
297		2.902800000000007e-08
	1.195705826855165e+00
298		2.912800000000007e-08
	1.195691222473709e+00
299		2.922800000000007e-08
	1.195676619257124e+00
300		2.932800000000008e-08
	1.195662017205086e+00
301		2.942800000000008e-08
	1.195647416317277e+00
302		2.952800000000008e-08
	1.195632816593376e+00
303		2.962800000000008e-08
	1.195618218033063e+00
304		2.972800000000008e-08
	1.195603620636022e+00
305		2.982800000000008e-08
	1.195589024401935e+00
306		2.992800000000008e-08
	1.195574429330485e+00
307		3.002800000000008e-08
	1.195559835421353e+00
308		3.012800000000008e-08
	1.195545242674224e+00
309		3.022800000000008e-08
	1.195530651088782e+00
310		3.032800000000008e-08
	1.195516060664713e+00
311		3.042800000000009e-08
	1.195501471401701e+00
312		3.052800000000009e-08
	1.195486883299433e+00
313		3.062800000000009e-08
	1.195472296357595e+00
314		3.072800000000009e-08
	1.195457710575874e+00
315		3.082800000000009e-08
	1.195443125953958e+00
316		3.092800000000009e-08
	1.195428542491535e+00
317		3.102800000000009e-08
	1.195413960188295e+00
318		3.112800000000009e-08
	1.195399379043925e+00
319		3.122800000000009e-08
	1.195384799058116e+00
320		3.132800000000009e-08
	1.195370220230558e+00
321		3.142800000000009e-08
	1.195355642560941e+00
322		3.152800000000010e-08
	1.195341066048956e+00
323		3.162800000000010e-08
	1.195326490694297e+00
324		3.172800000000010e-08
	1.195311916496654e+00
325		3.182800000000010e-08
	1.195297343455719e+00
326		3.192800000000010e-08
	1.195282771571186e+00
327		3.202800000000010e-08
	1.195268200842749e+00
328		3.212800000000010e-08
	1.195253631270102e+00
329		3.222800000000010e-08
	1.195239062852939e+00
330		3.232800000000010e-08
	1.195224495590954e+00
331		3.242800000000010e-08
	1.195209929483846e+00
332		3.252800000000010e-08
	1.195195364531307e+00
333		3.262800000000011e-08
	1.195180800733034e+00
334		3.272800000000011e-08
	1.195166238088725e+00
335		3.282800000000011e-08
	1.195151676598076e+00
336		3.292800000000011e-08
	1.195137116260785e+00
337		3.302800000000011e-08
	1.195122557076550e+00
338		3.312800000000011e-08
	1.195107999045070e+00
339		3.322800000000011e-08
	1.195093442166043e+00
340		3.332800000000011e-08
	1.195078886439169e+00
341		3.342800000000011e-08
	1.195064331864147e+00
342		3.352800000000011e-08
	1.195049778440676e+00
343		3.362800000000011e-08
	1.195035226168459e+00
344		3.372800000000012e-08
	1.195020675047195e+00
345		3.382800000000012e-08
	1.195006125076586e+00
346		3.392800000000012e-08
	1.194991576256334e+00
347		3.402800000000012e-08
	1.194977028586141e+00
348		3.412800000000012e-08
	1.194962482065709e+00
349		3.422800000000012e-08
	1.194947936694740e+00
350		3.432800000000012e-08
	1.194933392472938e+00
351		3.442800000000012e-08
	1.194918849400007e+00
352		3.452800000000012e-08
	1.194904307475650e+00
353		3.462800000000012e-08
	1.194889766699573e+00
354		3.472800000000012e-08
	1.194875227071479e+00
355		3.482800000000012e-08
	1.194860688591074e+00
356		3.492800000000013e-08
	1.194846151258063e+00
357		3.502800000000013e-08
	1.194831615072152e+00
358		3.512800000000013e-08
	1.194817080033047e+00
359		3.522800000000013e-08
	1.194802546140454e+00
360		3.532800000000013e-08
	1.194788013394080e+00
361		3.542800000000013e-08
	1.194773481793632e+00
362		3.552800000000013e-08
	1.194758951338820e+00
363		3.562800000000013e-08
	1.194744422029349e+00
364		3.572800000000013e-08
	1.194729893864927e+00
365		3.582800000000013e-08
	1.194715366845263e+00
366		3.592800000000013e-08
	1.194700840970067e+00
367		3.602800000000014e-08
	1.194686316239048e+00
368		3.612800000000014e-08
	1.194671792651914e+00
369		3.622800000000014e-08
	1.194657270208376e+00
370		3.632800000000014e-08
	1.194642748908144e+00
371		3.642800000000014e-08
	1.194628228750927e+00
372		3.652800000000014e-08
	1.194613709736436e+00
373		3.662800000000014e-08
	1.194599191864385e+00
374		3.672800000000014e-08
	1.194584675134483e+00
375		3.682800000000014e-08
	1.194570159546442e+00
376		3.692800000000014e-08
	1.194555645099975e+00
377		3.702800000000014e-08
	1.194541131794792e+00
378		3.712800000000015e-08
	1.194526619630607e+00
379		3.722800000000015e-08
	1.194512108607134e+00
380		3.732800000000015e-08
	1.194497598724085e+00
381		3.742800000000015e-08
	1.194483089981173e+00
382		3.752800000000015e-08
	1.194468582378113e+00
383		3.762800000000015e-08
	1.194454075914618e+00
384		3.772800000000015e-08
	1.194439570590402e+00
385		3.782800000000015e-08
	1.194425066405180e+00
386		3.792800000000015e-08
	1.194410563358668e+00
387		3.802800000000015e-08
	1.194396061450581e+00
388		3.812800000000015e-08
	1.194381560680633e+00
389		3.822800000000016e-08
	1.194367061048542e+00
390		3.832800000000016e-08
	1.194352562554023e+00
391		3.842800000000016e-08
	1.194338065196791e+00
392		3.852800000000016e-08
	1.194323568976564e+00
393		3.862800000000016e-08
	1.194309073893058e+00
394		3.872800000000016e-08
	1.194294579945991e+00
395		3.882800000000016e-08
	1.194280087135078e+00
396		3.892800000000016e-08
	1.194265595460040e+00
397		3.902800000000016e-08
	1.194251104920593e+00
398		3.912800000000016e-08
	1.194236615516456e+00
399		3.922800000000016e-08
	1.194222127247347e+00
400		3.932800000000017e-08
	1.194207640112984e+00
401		3.942800000000017e-08
	1.194193154113086e+00
402		3.952800000000017e-08
	1.194178669247374e+00
403		3.962800000000017e-08
	1.194164185515566e+00
404		3.972800000000017e-08
	1.194149702917380e+00
405		3.982800000000017e-08
	1.194135221452538e+00
406		3.992800000000017e-08
	1.194120741120760e+00
407		4.002800000000017e-08
	1.194106261921766e+00
408		4.012800000000017e-08
	1.194091783855278e+00
409		4.022800000000017e-08
	1.194077306921016e+00
410		4.032800000000017e-08
	1.194062831118700e+00
411		4.042800000000018e-08
	1.194048356448051e+00
412		4.052800000000018e-08
	1.194033882908793e+00
413		4.062800000000018e-08
	1.194019410500645e+00
414		4.072800000000018e-08
	1.194004939223332e+00
415		4.082800000000018e-08
	1.193990469076574e+00
416		4.092800000000018e-08
	1.193976000060095e+00
417		4.102800000000018e-08
	1.193961532173616e+00
418		4.112800000000018e-08
	1.193947065416862e+00
419		4.122800000000018e-08
	1.193932599789555e+00
420		4.132800000000018e-08
	1.193918135291418e+00
421		4.142800000000018e-08
	1.193903671922177e+00
422		4.152800000000018e-08
	1.193889209681555e+00
423		4.162800000000019e-08
	1.193874748569274e+00
424		4.172800000000019e-08
	1.193860288585059e+00
425		4.182800000000019e-08
	1.193845829728636e+00
426		4.192800000000019e-08
	1.193831371999728e+00
427		4.202800000000019e-08
	1.193816915398061e+00
428		4.212800000000019e-08
	1.193802459923360e+00
429		4.222800000000019e-08
	1.193788005575350e+00
430		4.232800000000019e-08
	1.193773552353758e+00
431		4.242800000000019e-08
	1.193759100258310e+00
432		4.252800000000019e-08
	1.193744649288728e+00
433		4.262800000000019e-08
	1.193730199444742e+00
434		4.272800000000020e-08
	1.193715750726078e+00
435		4.282800000000020e-08
	1.193701303132461e+00
436		4.292800000000020e-08
	1.193686856663618e+00
437		4.302800000000020e-08
	1.193672411319279e+00
438		4.312800000000020e-08
	1.193657967099168e+00
439		4.322800000000020e-08
	1.193643524003014e+00
440		4.332800000000020e-08
	1.193629082030545e+00
441		4.342800000000020e-08
	1.193614641181488e+00
442		4.352800000000020e-08
	1.193600201455569e+00
443		4.362800000000020e-08
	1.193585762852519e+00
444		4.372800000000020e-08
	1.193571325372067e+00
445		4.382800000000021e-08
	1.193556889013940e+00
446		4.392800000000021e-08
	1.193542453777867e+00
447		4.402800000000021e-08
	1.193528019663578e+00
448		4.412800000000021e-08
	1.193513586670801e+00
449		4.422800000000021e-08
	1.193499154799266e+00
450		4.432800000000021e-08
	1.193484724048703e+00
451		4.442800000000021e-08
	1.193470294418841e+00
452		4.452800000000021e-08
	1.193455865909411e+00
453		4.462800000000021e-08
	1.193441438520142e+00
454		4.472800000000021e-08
	1.193427012250764e+00
455		4.482800000000021e-08
	1.193412587101008e+00
456		4.492800000000022e-08
	1.193398163070607e+00
457		4.502800000000022e-08
	1.193383740159289e+00
458		4.512800000000022e-08
	1.193369318366787e+00
459		4.522800000000022e-08
	1.193354897692830e+00
460		4.532800000000022e-08
	1.193340478137152e+00
461		4.542800000000022e-08
	1.193326059699482e+00
462		4.552800000000022e-08
	1.193311642379553e+00
463		4.562800000000022e-08
	1.193297226177099e+00
464		4.572800000000022e-08
	1.193282811091850e+00
465		4.582800000000022e-08
	1.193268397123538e+00
466		4.592800000000022e-08
	1.193253984271897e+00
467		4.602800000000023e-08
	1.193239572536657e+00
468		4.612800000000023e-08
	1.193225161917555e+00
469		4.622800000000023e-08
	1.193210752414321e+00
470		4.632800000000023e-08
	1.193196344026690e+00
471		4.642800000000023e-08
	1.193181936754394e+00
472		4.652800000000023e-08
	1.193167530597166e+00
473		4.662800000000023e-08
	1.193153125554742e+00
474		4.672800000000023e-08
	1.193138721626855e+00
475		4.682800000000023e-08
	1.193124318813239e+00
476		4.692800000000023e-08
	1.193109917113627e+00
477		4.702800000000023e-08
	1.193095516527756e+00
478		4.712800000000024e-08
	1.193081117055358e+00
479		4.722800000000024e-08
	1.193066718696171e+00
480		4.732800000000024e-08
	1.193052321449927e+00
481		4.742800000000024e-08
	1.193037925316361e+00
482		4.752800000000024e-08
	1.193023530295210e+00
483		4.762800000000024e-08
	1.193009136386209e+00
484		4.772800000000024e-08
	1.192994743589093e+00
485		4.782800000000024e-08
	1.192980351903598e+00
486		4.792800000000024e-08
	1.192965961329460e+00
487		4.802800000000024e-08
	1.192951571866415e+00
488		4.812800000000024e-08
	1.192937183514200e+00
489		4.822800000000024e-08
	1.192922796272550e+00
490		4.832800000000025e-08
	1.192908410141203e+00
491		4.842800000000025e-08
	1.192894025119895e+00
492		4.852800000000025e-08
	1.192879641208365e+00
493		4.862800000000025e-08
	1.192865258406347e+00
494		4.872800000000025e-08
	1.192850876713579e+00
495		4.882800000000025e-08
	1.192836496129799e+00
496		4.892800000000025e-08
	1.192822116654745e+00
497		4.902800000000025e-08
	1.192807738288154e+00
498		4.912800000000025e-08
	1.192793361029764e+00
499		4.922800000000025e-08
	1.192778984879313e+00
500		4.932800000000025e-08
	1.192764609836538e+00
501		4.942800000000026e-08
	1.192750235901179e+00
502		4.952800000000026e-08
	1.192735863072973e+00
503		4.962800000000026e-08
	1.192721491351660e+00
504		4.972800000000026e-08
	1.192707120736979e+00
505		4.982800000000026e-08
	1.192692751228668e+00
506		4.992800000000026e-08
	1.192678382826467e+00
507		5.002800000000026e-08
	1.192664015530115e+00
508		5.012800000000026e-08
	1.192649649339351e+00
509		5.022800000000026e-08
	1.192635284253916e+00
510		5.032800000000026e-08
	1.192620920273547e+00
511		5.042800000000026e-08
	1.192606557397986e+00
512		5.052800000000027e-08
	1.192592195626971e+00
513		5.062800000000027e-08
	1.192577834960246e+00
514		5.072800000000027e-08
	1.192563475397548e+00
515		5.082800000000027e-08
	1.192549116938618e+00
516		5.092800000000027e-08
	1.192534759583197e+00
517		5.102800000000027e-08
	1.192520403331027e+00
518		5.112800000000027e-08
	1.192506048181848e+00
519		5.122800000000027e-08
	1.192491694135399e+00
520		5.132800000000027e-08
	1.192477341191424e+00
521		5.142800000000027e-08
	1.192462989349663e+00
522		5.152800000000027e-08
	1.192448638609860e+00
523		5.162800000000028e-08
	1.192434288971754e+00
524		5.172800000000028e-08
	1.192419940435087e+00
525		5.182800000000028e-08
	1.192405592999603e+00
526		5.192800000000028e-08
	1.192391246665041e+00
527		5.202800000000028e-08
	1.192376901431146e+00
528		5.212800000000028e-08
	1.192362557297659e+00
529		5.222800000000028e-08
	1.192348214264322e+00
530		5.232800000000028e-08
	1.192333872330879e+00
531		5.242800000000028e-08
	1.192319531497073e+00
532		5.252800000000028e-08
	1.192305191762646e+00
533		5.262800000000028e-08
	1.192290853127342e+00
534		5.272800000000029e-08
	1.192276515590903e+00
535		5.282800000000029e-08
	1.192262179153073e+00
536		5.292800000000029e-08
	1.192247843813596e+00
537		5.302800000000029e-08
	1.192233509572216e+00
538		5.312800000000029e-08
	1.192219176428675e+00
539		5.322800000000029e-08
	1.192204844382719e+00
540		5.332800000000029e-08
	1.192190513434093e+00
541		5.342800000000029e-08
	1.192176183582538e+00
542		5.352800000000029e-08
	1.192161854827801e+00
543		5.362800000000029e-08
	1.192147527169625e+00
544		5.372800000000029e-08
	1.192133200607756e+00
545		5.382800000000030e-08
	1.192118875141939e+00
546		5.392800000000030e-08
	1.192104550771918e+00
547		5.402800000000030e-08
	1.192090227497438e+00
548		5.412800000000030e-08
	1.192075905318245e+00
549		5.422800000000030e-08
	1.192061584234083e+00
550		5.432800000000030e-08
	1.192047264244700e+00
551		5.442800000000030e-08
	1.192032945349840e+00
552		5.452800000000030e-08
	1.192018627549249e+00
553		5.462800000000030e-08
	1.192004310842673e+00
554		5.472800000000030e-08
	1.191989995229858e+00
555		5.482800000000030e-08
	1.191975680710551e+00
556		5.492800000000030e-08
	1.191961367284497e+00
557		5.502800000000031e-08
	1.191947054951442e+00
558		5.512800000000031e-08
	1.191932743711136e+00
559		5.522800000000031e-08
	1.191918433563323e+00
560		5.532800000000031e-08
	1.191904124507752e+00
561		5.542800000000031e-08
	1.191889816544167e+00
562		5.552800000000031e-08
	1.191875509672318e+00
563		5.562800000000031e-08
	1.191861203891952e+00
564		5.572800000000031e-08
	1.191846899202816e+00
565		5.582800000000031e-08
	1.191832595604657e+00
566		5.592800000000031e-08
	1.191818293097222e+00
567		5.602800000000031e-08
	1.191803991680260e+00
568		5.612800000000032e-08
	1.191789691353518e+00
569		5.622800000000032e-08
	1.191775392116745e+00
570		5.632800000000032e-08
	1.191761093969690e+00
571		5.642800000000032e-08
	1.191746796912103e+00
572		5.652800000000032e-08
	1.191732500943729e+00
573		5.662800000000032e-08
	1.191718206064317e+00
574		5.672800000000032e-08
	1.191703912273618e+00
575		5.682800000000032e-08
	1.191689619571380e+00
576		5.692800000000032e-08
	1.191675327957351e+00
577		5.702800000000032e-08
	1.191661037431281e+00
578		5.712800000000032e-08
	1.191646747992921e+00
579		5.722800000000033e-08
	1.191632459642018e+00
580		5.732800000000033e-08
	1.191618172378323e+00
581		5.742800000000033e-08
	1.191603886201586e+00
582		5.752800000000033e-08
	1.191589601111555e+00
583		5.762800000000033e-08
	1.191575317107981e+00
584		5.772800000000033e-08
	1.191561034190615e+00
585		5.782800000000033e-08
	1.191546752359206e+00
586		5.792800000000033e-08
	1.191532471613507e+00
587		5.802800000000033e-08
	1.191518191953266e+00
588		5.812800000000033e-08
	1.191503913378234e+00
589		5.822800000000033e-08
	1.191489635888162e+00
590		5.832800000000034e-08
	1.191475359482802e+00
591		5.842800000000034e-08
	1.191461084161904e+00
592		5.852800000000034e-08
	1.191446809925219e+00
593		5.862800000000034e-08
	1.191432536772499e+00
594		5.872800000000034e-08
	1.191418264703496e+00
595		5.882800000000034e-08
	1.191403993717961e+00
596		5.892800000000034e-08
	1.191389723815646e+00
597		5.902800000000034e-08
	1.191375454996302e+00