Title: *inverter based oscillation frequency
Date: Wed Oct 24 13:42:09  2012
Plotname: Transient Analysis
Flags: real
No. Variables: 3
No. Points: 0       
Variables:
	0	time	time
	1	v(in)	voltage
	2	v(vc)	voltage
Values:
0		0.000000000000000e+00
	1.200000000000000e+00
	5.000000000000000e-02
1		1.000000000000000e-12
	1.199999198969588e+00
	5.000020000000000e-02
2		2.000000000000000e-12
	1.199998410942740e+00
	5.000040000000000e-02
3		4.000000000000001e-12
	1.199996859433947e+00
	5.000080000000000e-02
4		8.000000000000001e-12
	1.199993888018434e+00
	5.000160000000000e-02
5		1.600000000000000e-11
	1.199988345273586e+00
	5.000320000000000e-02
6		3.200000000000001e-11
	1.199978217934548e+00
	5.000640000000000e-02
7		6.400000000000001e-11
	1.199959483661246e+00
	5.001280000000000e-02
8		1.280000000000000e-10
	1.199923241607765e+00
	5.002560000000000e-02
9		2.280000000000000e-10
	1.199867005028360e+00
	5.004560000000000e-02
10		3.280000000000001e-10
	1.199811105813317e+00
	5.006560000000000e-02
11		4.280000000000001e-10
	1.199755482923933e+00
	5.008560000000000e-02
12		5.280000000000000e-10
	1.199700070813472e+00
	5.010560000000000e-02
13		6.280000000000000e-10
	1.199644827090543e+00
	5.012560000000001e-02
14		7.280000000000000e-10
	1.199589714858196e+00
	5.014560000000001e-02
15		8.279999999999999e-10
	1.199534707126519e+00
	5.016560000000000e-02
16		9.279999999999999e-10
	1.199479781886755e+00
	5.018560000000000e-02
17		1.028000000000000e-09
	1.199424922218298e+00
	5.020560000000000e-02
18		1.128000000000000e-09
	1.199370114552652e+00
	5.022560000000000e-02
19		1.228000000000000e-09
	1.199315348199360e+00
	5.024560000000000e-02
20		1.328000000000000e-09
	1.199260614574230e+00
	5.026560000000000e-02
21		1.428000000000000e-09
	1.199205906798840e+00
	5.028560000000000e-02
22		1.528000000000000e-09
	1.199151219298263e+00
	5.030560000000001e-02
23		1.628000000000000e-09
	1.199096547534601e+00
	5.032560000000001e-02
24		1.728000000000000e-09
	1.199041887778747e+00
	5.034560000000000e-02
25		1.828000000000001e-09
	1.198987236943556e+00
	5.036560000000000e-02
26		1.928000000000000e-09
	1.198932592448844e+00
	5.038560000000000e-02
27		2.028000000000000e-09
	1.198877952118537e+00
	5.040560000000000e-02
28		2.128000000000001e-09
	1.198823314099023e+00
	5.042560000000000e-02
29		2.228000000000001e-09
	1.198768676795749e+00
	5.044560000000000e-02
30		2.328000000000001e-09
	1.198714038823111e+00
	5.046560000000001e-02
31		2.428000000000001e-09
	1.198659398965127e+00
	5.048560000000001e-02
32		2.528000000000001e-09
	1.198604756144313e+00
	5.050560000000000e-02
33		2.628000000000001e-09
	1.198550109397065e+00
	5.052560000000000e-02
34		2.728000000000001e-09
	1.198495457854089e+00
	5.054560000000000e-02
35		2.828000000000001e-09
	1.198440800724818e+00
	5.056560000000000e-02
36		2.928000000000001e-09
	1.198386137284937e+00
	5.058560000000000e-02
37		3.028000000000001e-09
	1.198331466866391e+00
	5.060560000000000e-02
38		3.128000000000001e-09
	1.198276788849309e+00
	5.062560000000000e-02
39		3.228000000000001e-09
	1.198222102655485e+00
	5.064560000000001e-02
40		3.328000000000001e-09
	1.198167407743069e+00
	5.066560000000001e-02
41		3.428000000000001e-09
	1.198112703602213e+00
	5.068560000000000e-02
42		3.528000000000001e-09
	1.198057989751509e+00
	5.070560000000000e-02
43		3.628000000000002e-09
	1.198003265735025e+00
	5.072560000000000e-02
44		3.728000000000001e-09
	1.197948531119842e+00
	5.074560000000000e-02
45		3.828000000000001e-09
	1.197893785493982e+00
	5.076560000000000e-02
46		3.928000000000001e-09
	1.197839028464656e+00
	5.078560000000000e-02
47		4.028000000000001e-09
	1.197784259656765e+00
	5.080560000000001e-02
48		4.128000000000001e-09
	1.197729478711624e+00
	5.082560000000001e-02
49		4.228000000000002e-09
	1.197674685285838e+00
	5.084560000000000e-02
50		4.328000000000002e-09
	1.197619879050331e+00
	5.086560000000000e-02
51		4.428000000000002e-09
	1.197565059689482e+00
	5.088560000000000e-02
52		4.528000000000002e-09
	1.197510226900361e+00
	5.090560000000000e-02
53		4.628000000000002e-09
	1.197455380392040e+00
	5.092560000000000e-02
54		4.728000000000002e-09
	1.197400519884975e+00
	5.094560000000000e-02
55		4.828000000000002e-09
	1.197345645110433e+00
	5.096560000000001e-02
56		4.928000000000002e-09
	1.197290755809983e+00
	5.098560000000001e-02
57		5.028000000000002e-09
	1.197235851735012e+00
	5.100560000000001e-02
58		5.128000000000002e-09
	1.197180932646285e+00
	5.102560000000000e-02
59		5.228000000000002e-09
	1.197125998313532e+00
	5.104560000000000e-02
60		5.328000000000002e-09
	1.197071048515062e+00
	5.106560000000000e-02
61		5.428000000000002e-09
	1.197016083037399e+00
	5.108560000000000e-02
62		5.528000000000002e-09
	1.196961101674944e+00
	5.110560000000000e-02
63		5.628000000000002e-09
	1.196906104229649e+00
	5.112560000000000e-02
64		5.728000000000003e-09
	1.196851090510711e+00
	5.114560000000001e-02
65		5.828000000000003e-09
	1.196796060334284e+00
	5.116560000000001e-02
66		5.928000000000003e-09
	1.196741013523203e+00
	5.118560000000000e-02
67		6.028000000000003e-09
	1.196685949906714e+00
	5.120560000000000e-02
68		6.128000000000003e-09
	1.196630869320231e+00
	5.122560000000000e-02
69		6.228000000000003e-09
	1.196575771605087e+00
	5.124560000000000e-02
70		6.328000000000003e-09
	1.196520656608312e+00
	5.126560000000000e-02
71		6.428000000000003e-09
	1.196465524182409e+00
	5.128560000000000e-02
72		6.528000000000003e-09
	1.196410374185143e+00
	5.130560000000001e-02
73		6.628000000000003e-09
	1.196355206479339e+00
	5.132560000000001e-02
74		6.728000000000003e-09
	1.196300020932684e+00
	5.134560000000001e-02
75		6.828000000000003e-09
	1.196244817417551e+00
	5.136560000000000e-02
76		6.928000000000003e-09
	1.196189595810812e+00
	5.138560000000000e-02
77		7.028000000000003e-09
	1.196134355993666e+00
	5.140560000000000e-02
78		7.128000000000004e-09
	1.196079097851477e+00
	5.142560000000000e-02
79		7.228000000000004e-09
	1.196023821273617e+00
	5.144560000000000e-02
80		7.328000000000004e-09
	1.195968526153306e+00
	5.146560000000001e-02
81		7.428000000000004e-09
	1.195913212387475e+00
	5.148560000000001e-02
82		7.528000000000003e-09
	1.195857879876617e+00
	5.150560000000001e-02
83		7.628000000000002e-09
	1.195802528524657e+00
	5.152560000000000e-02
84		7.728000000000001e-09
	1.195747158238821e+00
	5.154560000000000e-02
85		7.828000000000001e-09
	1.195691768929508e+00
	5.156560000000000e-02
86		7.928000000000000e-09
	1.195636360510168e+00
	5.158560000000000e-02
87		8.027999999999999e-09
	1.195580932897192e+00
	5.160560000000000e-02
88		8.127999999999998e-09
	1.195525486009799e+00
	5.162560000000000e-02
89		8.227999999999998e-09
	1.195470019769922e+00
	5.164560000000000e-02
90		8.327999999999997e-09
	1.195414532561200e+00
	5.166560000000001e-02
91		8.427999999999996e-09
	1.195359009753751e+00
	5.168560000000001e-02
92		8.527999999999995e-09
	1.195303482572956e+00
	5.170560000000000e-02
93		8.627999999999995e-09
	1.195247928512042e+00
	5.172560000000000e-02
94		8.727999999999994e-09
	1.195192358668218e+00
	5.174560000000000e-02
95		8.827999999999993e-09
	1.195136767290427e+00
	5.176560000000000e-02
96		8.927999999999992e-09
	1.195081157126290e+00
	5.178560000000000e-02
97		9.027999999999992e-09
	1.195025526653905e+00
	5.180560000000000e-02
98		9.127999999999991e-09
	1.194969876520648e+00
	5.182560000000000e-02
99		9.227999999999990e-09
	1.194914206287027e+00
	5.184560000000000e-02
100		9.327999999999989e-09
	1.194858516072595e+00
	5.186560000000000e-02
101		9.427999999999989e-09
	1.194802805720605e+00
	5.188560000000000e-02
102		9.527999999999988e-09
	1.194747075220562e+00
	5.190560000000000e-02
103		9.627999999999987e-09
	1.194691324492830e+00
	5.192560000000000e-02
104		9.727999999999986e-09
	1.194635553497366e+00
	5.194560000000000e-02
105		9.827999999999986e-09
	1.194579762177875e+00
	5.196560000000000e-02
106		9.927999999999985e-09
	1.194523950489769e+00
	5.198560000000000e-02
107		1.002799999999998e-08
	1.194468118385576e+00
	5.200560000000000e-02
108		1.012799999999998e-08
	1.194412265822068e+00
	5.202560000000000e-02
109		1.022799999999998e-08
	1.194356392756385e+00
	5.204560000000000e-02
110		1.032799999999998e-08
	1.194300499147803e+00
	5.206560000000000e-02
111		1.042799999999998e-08
	1.194244584956657e+00
	5.208560000000000e-02
112		1.052799999999998e-08
	1.194188650144747e+00
	5.210560000000000e-02
113		1.062799999999998e-08
	1.194132694674995e+00
	5.212560000000000e-02
114		1.072799999999998e-08
	1.194076718511514e+00
	5.214560000000000e-02
115		1.082799999999998e-08
	1.194020721619471e+00
	5.216560000000000e-02
116		1.092799999999998e-08
	1.193964703965066e+00
	5.218560000000000e-02
117		1.102799999999998e-08
	1.193908665515466e+00
	5.220560000000000e-02
118		1.112799999999998e-08
	1.193852606238760e+00
	5.222560000000000e-02
119		1.122799999999997e-08
	1.193796526103924e+00
	5.224560000000000e-02
120		1.132799999999997e-08
	1.193740425080773e+00
	5.226560000000000e-02
121		1.142799999999997e-08
	1.193684303139926e+00
	5.228559999999999e-02
122		1.152799999999997e-08
	1.193628160252771e+00
	5.230560000000000e-02
123		1.162799999999997e-08
	1.193571996391436e+00
	5.232560000000000e-02
124		1.172799999999997e-08
	1.193515811528753e+00
	5.234560000000000e-02
125		1.182799999999997e-08
	1.193459605638235e+00
	5.236560000000000e-02
126		1.192799999999997e-08
	1.193403378694043e+00
	5.238560000000000e-02
127		1.202799999999997e-08
	1.193347130670963e+00
	5.240560000000000e-02
128		1.212799999999997e-08
	1.193290861544375e+00
	5.242560000000000e-02
129		1.222799999999997e-08
	1.193234571290240e+00
	5.244560000000000e-02
130		1.232799999999997e-08
	1.193178259885068e+00
	5.246559999999999e-02
131		1.242799999999997e-08
	1.193121927305900e+00
	5.248559999999999e-02
132		1.252799999999997e-08
	1.193065573530287e+00
	5.250560000000000e-02
133		1.262799999999996e-08
	1.193009198536267e+00
	5.252560000000000e-02
134		1.272799999999996e-08
	1.192952802302351e+00
	5.254560000000000e-02
135		1.282799999999996e-08
	1.192896384807498e+00
	5.256560000000000e-02
136		1.292799999999996e-08
	1.192839946031105e+00
	5.258560000000000e-02
137		1.302799999999996e-08
	1.192783485952982e+00
	5.260560000000000e-02
138		1.312799999999996e-08
	1.192727004553343e+00
	5.262559999999999e-02
139		1.322799999999996e-08
	1.192670501812784e+00
	5.264559999999999e-02
140		1.332799999999996e-08
	1.192613977712275e+00
	5.266559999999999e-02
141		1.342799999999996e-08
	1.192557432233138e+00
	5.268559999999999e-02
142		1.352799999999996e-08
	1.192500865357038e+00
	5.270560000000000e-02
143		1.362799999999996e-08
	1.192444277065968e+00
	5.272560000000000e-02
144		1.372799999999996e-08
	1.192387667342235e+00
	5.274560000000000e-02
145		1.382799999999996e-08
	1.192331036168450e+00
	5.276560000000000e-02
146		1.392799999999995e-08
	1.192274383527518e+00
	5.278560000000000e-02
147		1.402799999999995e-08
	1.192217709402619e+00
	5.280559999999999e-02
148		1.412799999999995e-08
	1.192161013777205e+00
	5.282559999999999e-02
149		1.422799999999995e-08
	1.192104296634986e+00
	5.284559999999999e-02
150		1.432799999999995e-08
	1.192047557959920e+00
	5.286559999999999e-02
151		1.442799999999995e-08
	1.191990797736202e+00
	5.288559999999999e-02
152		1.452799999999995e-08
	1.191934015948257e+00
	5.290559999999999e-02
153		1.462799999999995e-08
	1.191877212580728e+00
	5.292560000000000e-02
154		1.472799999999995e-08
	1.191820387618474e+00
	5.294560000000000e-02
155		1.482799999999995e-08
	1.191763541046553e+00
	5.296559999999999e-02
156		1.492799999999995e-08
	1.191706672850220e+00
	5.298559999999999e-02
157		1.502799999999995e-08
	1.191649783014915e+00
	5.300559999999999e-02
158		1.512799999999995e-08
	1.191592871526261e+00
	5.302559999999999e-02
159		1.522799999999995e-08
	1.191535938370050e+00
	5.304559999999999e-02
160		1.532799999999995e-08
	1.191478983532245e+00
	5.306559999999999e-02
161		1.542799999999995e-08
	1.191422006998963e+00
	5.308560000000000e-02
162		1.552799999999995e-08
	1.191365008756478e+00
	5.310560000000000e-02
163		1.562799999999995e-08
	1.191307988791210e+00
	5.312560000000000e-02
164		1.572799999999995e-08
	1.191250947089720e+00
	5.314559999999999e-02
165		1.582799999999995e-08
	1.191193883638702e+00
	5.316559999999999e-02
166		1.592799999999996e-08
	1.191136798424983e+00
	5.318559999999999e-02
167		1.602799999999996e-08
	1.191079691435515e+00
	5.320559999999999e-02
168		1.612799999999996e-08
	1.191022562657368e+00
	5.322560000000000e-02
169		1.622799999999996e-08
	1.190965412077729e+00
	5.324560000000000e-02
170		1.632799999999996e-08
	1.190908239683895e+00
	5.326560000000000e-02
171		1.642799999999996e-08
	1.190851045463269e+00
	5.328560000000000e-02
172		1.652799999999996e-08
	1.190793829403355e+00
	5.330559999999999e-02
173		1.662799999999996e-08
	1.190736591491755e+00
	5.332559999999999e-02
174		1.672799999999996e-08
	1.190679331716166e+00
	5.334559999999999e-02
175		1.682799999999996e-08
	1.190622050064375e+00
	5.336560000000000e-02
176		1.692799999999996e-08
	1.190564746524253e+00
	5.338560000000000e-02
177		1.702799999999997e-08
	1.190507421083756e+00
	5.340560000000000e-02
178		1.712799999999997e-08
	1.190450073730920e+00
	5.342560000000000e-02
179		1.722799999999997e-08
	1.190392704453856e+00
	5.344560000000000e-02
180		1.732799999999997e-08
	1.190335313240748e+00
	5.346560000000000e-02
181		1.742799999999997e-08
	1.190277900079852e+00
	5.348559999999999e-02
182		1.752799999999997e-08
	1.190220464959489e+00
	5.350560000000000e-02
183		1.762799999999997e-08
	1.190163007868046e+00
	5.352560000000000e-02
184		1.772799999999997e-08
	1.190105528793973e+00
	5.354560000000000e-02
185		1.782799999999997e-08
	1.190048027725779e+00
	5.356560000000000e-02
186		1.792799999999997e-08
	1.189990504652027e+00
	5.358560000000000e-02
187		1.802799999999997e-08
	1.189932959561337e+00
	5.360560000000000e-02
188		1.812799999999998e-08
	1.189875392442383e+00
	5.362560000000000e-02
189		1.822799999999998e-08
	1.189817803283887e+00
	5.364560000000000e-02
190		1.832799999999998e-08
	1.189760192074620e+00
	5.366560000000000e-02
191		1.842799999999998e-08
	1.189702558803398e+00
	5.368560000000000e-02
192		1.852799999999998e-08
	1.189644903459083e+00
	5.370560000000000e-02
193		1.862799999999998e-08
	1.189587226030579e+00
	5.372560000000000e-02
194		1.872799999999998e-08
	1.189529526506830e+00
	5.374560000000000e-02
195		1.882799999999998e-08
	1.189471804876818e+00
	5.376560000000000e-02
196		1.892799999999998e-08
	1.189414061129565e+00
	5.378560000000000e-02
197		1.902799999999998e-08
	1.189356295254126e+00
	5.380560000000000e-02
198		1.912799999999998e-08
	1.189298507239592e+00
	5.382560000000000e-02
199		1.922799999999999e-08
	1.189240697075087e+00
	5.384560000000000e-02
200		1.932799999999999e-08
	1.189182864749766e+00
	5.386560000000000e-02
201		1.942799999999999e-08
	1.189125010252812e+00
	5.388560000000000e-02
202		1.952799999999999e-08
	1.189067133573439e+00
	5.390560000000000e-02
203		1.962799999999999e-08
	1.189009234700888e+00
	5.392560000000000e-02
204		1.972799999999999e-08
	1.188951313624427e+00
	5.394560000000000e-02
205		1.982799999999999e-08
	1.188893370333347e+00
	5.396560000000000e-02
206		1.992799999999999e-08
	1.188835404816966e+00
	5.398560000000000e-02
207		2.002799999999999e-08
	1.188777417064626e+00
	5.400560000000000e-02
208		2.012799999999999e-08
	1.188719407065685e+00
	5.402560000000000e-02
209		2.022799999999999e-08
	1.188661374809528e+00
	5.404560000000000e-02
210		2.032800000000000e-08
	1.188603320285559e+00
	5.406560000000001e-02
211		2.042800000000000e-08
	1.188545243483199e+00
	5.408560000000000e-02
212		2.052800000000000e-08
	1.188487144391888e+00
	5.410560000000000e-02
213		2.062800000000000e-08
	1.188429023001086e+00
	5.412560000000000e-02
214		2.072800000000000e-08
	1.188370879300269e+00
	5.414560000000000e-02
215		2.082800000000000e-08
	1.188312713278928e+00
	5.416560000000000e-02
216		2.092800000000000e-08
	1.188254524926568e+00
	5.418560000000000e-02
217		2.102800000000000e-08
	1.188196314232713e+00
	5.420560000000001e-02
218		2.112800000000000e-08
	1.188138081186898e+00
	5.422560000000001e-02
219		2.122800000000000e-08
	1.188079825778671e+00
	5.424560000000000e-02
220		2.132800000000000e-08
	1.188021547997594e+00
	5.426560000000000e-02
221		2.142800000000000e-08
	1.187963247833241e+00
	5.428560000000000e-02
222		2.152800000000001e-08
	1.187904925275197e+00
	5.430560000000000e-02
223		2.162800000000001e-08
	1.187846580313060e+00
	5.432560000000001e-02
224		2.172800000000001e-08
	1.187788212936435e+00
	5.434560000000001e-02
225		2.182800000000001e-08
	1.187729823134938e+00
	5.436560000000001e-02
226		2.192800000000001e-08
	1.187671410898198e+00
	5.438560000000001e-02
227		2.202800000000001e-08
	1.187612976215850e+00
	5.440560000000001e-02
228		2.212800000000001e-08
	1.187554519077537e+00
	5.442560000000000e-02
229		2.222800000000001e-08
	1.187496039472912e+00
	5.444560000000000e-02
230		2.232800000000001e-08
	1.187437537391635e+00
	5.446560000000001e-02
231		2.242800000000001e-08
	1.187379012823374e+00
	5.448560000000001e-02
232		2.252800000000001e-08
	1.187320465757804e+00
	5.450560000000001e-02
233		2.262800000000002e-08
	1.187261896184605e+00
	5.452560000000001e-02
234		2.272800000000002e-08
	1.187203304093466e+00
	5.454560000000001e-02
235		2.282800000000002e-08
	1.187144689474080e+00
	5.456560000000001e-02
236		2.292800000000002e-08
	1.187086052316147e+00
	5.458560000000000e-02
237		2.302800000000002e-08
	1.187027392609370e+00
	5.460560000000001e-02
238		2.312800000000002e-08
	1.186968710343462e+00
	5.462560000000001e-02
239		2.322800000000002e-08
	1.186910005508134e+00
	5.464560000000001e-02
240		2.332800000000002e-08
	1.186851278093108e+00
	5.466560000000001e-02
241		2.342800000000002e-08
	1.186792528088107e+00
	5.468560000000001e-02
242		2.352800000000002e-08
	1.186733755482859e+00
	5.470560000000001e-02
243		2.362800000000002e-08
	1.186674960267094e+00
	5.472560000000001e-02
244		2.372800000000003e-08
	1.186616142430549e+00
	5.474560000000001e-02
245		2.382800000000003e-08
	1.186557301962963e+00
	5.476560000000001e-02
246		2.392800000000003e-08
	1.186498438854075e+00
	5.478560000000001e-02
247		2.402800000000003e-08
	1.186439553093632e+00
	5.480560000000001e-02
248		2.412800000000003e-08
	1.186380644671380e+00
	5.482560000000001e-02
249		2.422800000000003e-08
	1.186321713577069e+00
	5.484560000000001e-02
250		2.432800000000003e-08
	1.186262759800452e+00
	5.486560000000001e-02
251		2.442800000000003e-08
	1.186203783331283e+00
	5.488560000000001e-02
252		2.452800000000003e-08
	1.186144784159320e+00
	5.490560000000001e-02
253		2.462800000000003e-08
	1.186085762274322e+00
	5.492560000000001e-02
254		2.472800000000003e-08
	1.186026717666049e+00
	5.494560000000001e-02
255		2.482800000000004e-08
	1.185967650324264e+00
	5.496560000000001e-02
256		2.492800000000004e-08
	1.185908560238731e+00
	5.498560000000001e-02
257		2.502800000000004e-08
	1.185849447399213e+00
	5.500560000000001e-02
258		2.512800000000004e-08
	1.185790311795481e+00
	5.502560000000001e-02
259		2.522800000000004e-08
	1.185731153417300e+00
	5.504560000000001e-02
260		2.532800000000004e-08
	1.185671972254439e+00
	5.506560000000001e-02
261		2.542800000000004e-08
	1.185612768296668e+00
	5.508560000000001e-02
262		2.552800000000004e-08
	1.185553541533760e+00
	5.510560000000001e-02
263		2.562800000000004e-08
	1.185494291955484e+00
	5.512560000000001e-02
264		2.572800000000004e-08
	1.185435019551613e+00
	5.514560000000001e-02
265		2.582800000000004e-08
	1.185375724311919e+00
	5.516560000000002e-02
266		2.592800000000005e-08
	1.185316406226178e+00
	5.518560000000002e-02
267		2.602800000000005e-08
	1.185257065284160e+00
	5.520560000000001e-02
268		2.612800000000005e-08
	1.185197701475643e+00
	5.522560000000001e-02
269		2.622800000000005e-08
	1.185138314790400e+00
	5.524560000000001e-02
270		2.632800000000005e-08
	1.185078905218203e+00
	5.526560000000001e-02
271		2.642800000000005e-08
	1.185019472748830e+00
	5.528560000000001e-02
272		2.652800000000005e-08
	1.184960017372055e+00
	5.530560000000002e-02
273		2.662800000000005e-08
	1.184900539077655e+00
	5.532560000000002e-02
274		2.672800000000005e-08
	1.184841037855401e+00
	5.534560000000002e-02
275		2.682800000000005e-08
	1.184781513695069e+00
	5.536560000000001e-02
276		2.692800000000005e-08
	1.184721966586435e+00
	5.538560000000001e-02
277		2.702800000000006e-08
	1.184662396519272e+00
	5.540560000000001e-02
278		2.712800000000006e-08
	1.184602803483356e+00
	5.542560000000001e-02
279		2.722800000000006e-08
	1.184543187468460e+00
	5.544560000000002e-02
280		2.732800000000006e-08
	1.184483548464359e+00
	5.546560000000002e-02
281		2.742800000000006e-08
	1.184423886460823e+00
	5.548560000000002e-02
282		2.752800000000006e-08
	1.184364201447627e+00
	5.550560000000002e-02
283		2.762800000000006e-08
	1.184304493414542e+00
	5.552560000000002e-02
284		2.772800000000006e-08
	1.184244762351342e+00
	5.554560000000001e-02
285		2.782800000000006e-08
	1.184185008247798e+00
	5.556560000000001e-02
286		2.792800000000006e-08
	1.184125231093681e+00
	5.558560000000002e-02
287		2.802800000000006e-08
	1.184065430878761e+00
	5.560560000000002e-02
288		2.812800000000006e-08
	1.184005607592807e+00
	5.562560000000002e-02
289		2.822800000000007e-08
	1.183945761225591e+00
	5.564560000000002e-02
290		2.832800000000007e-08
	1.183885891766879e+00
	5.566560000000002e-02
291		2.842800000000007e-08
	1.183825999206439e+00
	5.568560000000002e-02
292		2.852800000000007e-08
	1.183766083534040e+00
	5.570560000000001e-02
293		2.862800000000007e-08
	1.183706144739448e+00
	5.572560000000002e-02
294		2.872800000000007e-08
	1.183646182812428e+00
	5.574560000000002e-02
295		2.882800000000007e-08
	1.183586197742746e+00
	5.576560000000002e-02
296		2.892800000000007e-08
	1.183526189520167e+00
	5.578560000000002e-02
297		2.902800000000007e-08
	1.183466158134454e+00
	5.580560000000002e-02
298		2.912800000000007e-08
	1.183406103575369e+00
	5.582560000000002e-02
299		2.922800000000007e-08
	1.183346025832676e+00
	5.584560000000002e-02
300		2.932800000000008e-08
	1.183285924896134e+00
	5.586560000000002e-02
301		2.942800000000008e-08
	1.183225800755506e+00
	5.588560000000002e-02
302		2.952800000000008e-08
	1.183165653400552e+00
	5.590560000000002e-02
303		2.962800000000008e-08
	1.183105482821027e+00
	5.592560000000002e-02
304		2.972800000000008e-08
	1.183045289006692e+00
	5.594560000000002e-02
305		2.982800000000008e-08
	1.182985071947304e+00
	5.596560000000002e-02
306		2.992800000000008e-08
	1.182924831632619e+00
	5.598560000000002e-02
307		3.002800000000008e-08
	1.182864568052393e+00
	5.600560000000002e-02
308		3.012800000000008e-08
	1.182804281196381e+00
	5.602560000000002e-02
309		3.022800000000008e-08
	1.182743971054336e+00
	5.604560000000002e-02
310		3.032800000000008e-08
	1.182683637616011e+00
	5.606560000000002e-02
311		3.042800000000009e-08
	1.182623280871158e+00
	5.608560000000002e-02
312		3.052800000000009e-08
	1.182562900809530e+00
	5.610560000000002e-02
313		3.062800000000009e-08
	1.182502497420876e+00
	5.612560000000002e-02
314		3.072800000000009e-08
	1.182442070694945e+00
	5.614560000000002e-02
315		3.082800000000009e-08
	1.182381620621486e+00
	5.616560000000002e-02
316		3.092800000000009e-08
	1.182321147190246e+00
	5.618560000000002e-02
317		3.102800000000009e-08
	1.182260650390974e+00
	5.620560000000002e-02
318		3.112800000000009e-08
	1.182200130213414e+00
	5.622560000000002e-02
319		3.122800000000009e-08
	1.182139586647313e+00
	5.624560000000002e-02
320		3.132800000000009e-08
	1.182079019682414e+00
	5.626560000000002e-02
321		3.142800000000009e-08
	1.182018429308461e+00
	5.628560000000003e-02
322		3.152800000000010e-08
	1.181957815515197e+00
	5.630560000000003e-02
323		3.162800000000010e-08
	1.181897178292363e+00
	5.632560000000002e-02
324		3.172800000000010e-08
	1.181836517629700e+00
	5.634560000000002e-02
325		3.182800000000010e-08
	1.181775833516948e+00
	5.636560000000002e-02
326		3.192800000000010e-08
	1.181715125943847e+00
	5.638560000000002e-02
327		3.202800000000010e-08
	1.181654394900133e+00
	5.640560000000002e-02
328		3.212800000000010e-08
	1.181593640375545e+00
	5.642560000000003e-02
329		3.222800000000010e-08
	1.181532862359821e+00
	5.644560000000003e-02
330		3.232800000000010e-08
	1.181472060842696e+00
	5.646560000000003e-02
331		3.242800000000010e-08
	1.181411235813905e+00
	5.648560000000002e-02
332		3.252800000000010e-08
	1.181350387263182e+00
	5.650560000000002e-02
333		3.262800000000011e-08
	1.181289515180260e+00
	5.652560000000002e-02
334		3.272800000000011e-08
	1.181228619554873e+00
	5.654560000000002e-02
335		3.282800000000011e-08
	1.181167700376752e+00
	5.656560000000003e-02
336		3.292800000000011e-08
	1.181106757635628e+00
	5.658560000000003e-02
337		3.302800000000011e-08
	1.181045791321232e+00
	5.660560000000003e-02
338		3.312800000000011e-08
	1.180984801423292e+00
	5.662560000000003e-02
339		3.322800000000011e-08
	1.180923787931537e+00
	5.664560000000003e-02
340		3.332800000000011e-08
	1.180862750835696e+00
	5.666560000000002e-02
341		3.342800000000011e-08
	1.180801690125495e+00
	5.668560000000002e-02
342		3.352800000000011e-08
	1.180740605790661e+00
	5.670560000000003e-02
343		3.362800000000011e-08
	1.180679497820921e+00
	5.672560000000003e-02
344		3.372800000000012e-08
	1.180618366205998e+00
	5.674560000000003e-02
345		3.382800000000012e-08
	1.180557210935617e+00
	5.676560000000003e-02
346		3.392800000000012e-08
	1.180496031999501e+00
	5.678560000000003e-02
347		3.402800000000012e-08
	1.180434829387375e+00
	5.680560000000003e-02
348		3.412800000000012e-08
	1.180373603088960e+00
	5.682560000000002e-02
349		3.422800000000012e-08
	1.180312353093977e+00
	5.684560000000003e-02
350		3.432800000000012e-08
	1.180251079392148e+00
	5.686560000000003e-02
351		3.442800000000012e-08
	1.180189781973193e+00
	5.688560000000003e-02
352		3.452800000000012e-08
	1.180128460826831e+00
	5.690560000000003e-02
353		3.462800000000012e-08
	1.180067115942781e+00
	5.692560000000003e-02
354		3.472800000000012e-08
	1.180005747310761e+00
	5.694560000000003e-02
355		3.482800000000012e-08
	1.179944354920490e+00
	5.696560000000003e-02
356		3.492800000000013e-08
	1.179882938761683e+00
	5.698560000000003e-02
357		3.502800000000013e-08
	1.179821498824057e+00
	5.700560000000003e-02
358		3.512800000000013e-08
	1.179760035097329e+00
	5.702560000000003e-02
359		3.522800000000013e-08
	1.179698547571214e+00
	5.704560000000003e-02
360		3.532800000000013e-08
	1.179637036235426e+00
	5.706560000000003e-02
361		3.542800000000013e-08
	1.179575501079679e+00
	5.708560000000003e-02
362		3.552800000000013e-08
	1.179513942093686e+00
	5.710560000000003e-02
363		3.562800000000013e-08
	1.179452359267160e+00
	5.712560000000003e-02
364		3.572800000000013e-08
	1.179390752589817e+00
	5.714560000000003e-02
365		3.582800000000013e-08
	1.179329122051366e+00
	5.716560000000003e-02
366		3.592800000000013e-08
	1.179267467641517e+00
	5.718560000000003e-02
367		3.602800000000014e-08
	1.179205789349985e+00
	5.720560000000003e-02
368		3.612800000000014e-08
	1.179144087166477e+00
	5.722560000000003e-02
369		3.622800000000014e-08
	1.179082361080706e+00
	5.724560000000004e-02
370		3.632800000000014e-08
	1.179020611082379e+00
	5.726560000000003e-02
371		3.642800000000014e-08
	1.178958837161205e+00
	5.728560000000003e-02
372		3.652800000000014e-08
	1.178897039306895e+00
	5.730560000000003e-02
373		3.662800000000014e-08
	1.178835217509155e+00
	5.732560000000003e-02
374		3.672800000000014e-08
	1.178773371757694e+00
	5.734560000000003e-02
375		3.682800000000014e-08
	1.178711502042220e+00
	5.736560000000003e-02
376		3.692800000000014e-08
	1.178649608352438e+00
	5.738560000000004e-02
377		3.702800000000014e-08
	1.178587690678057e+00
	5.740560000000004e-02
378		3.712800000000015e-08
	1.178525749008782e+00
	5.742560000000003e-02
379		3.722800000000015e-08
	1.178463783334320e+00
	5.744560000000003e-02
380		3.732800000000015e-08
	1.178401793644376e+00
	5.746560000000003e-02
381		3.742800000000015e-08
	1.178339779928653e+00
	5.748560000000003e-02
382		3.752800000000015e-08
	1.178277742176858e+00
	5.750560000000003e-02
383		3.762800000000015e-08
	1.178215680378696e+00
	5.752560000000004e-02
384		3.772800000000015e-08
	1.178153594523871e+00
	5.754560000000004e-02
385		3.782800000000015e-08
	1.178091484602086e+00
	5.756560000000004e-02
386		3.792800000000015e-08
	1.178029350603045e+00
	5.758560000000004e-02
387		3.802800000000015e-08
	1.177967192516452e+00
	5.760560000000003e-02
388		3.812800000000015e-08
	1.177905010332010e+00
	5.762560000000003e-02
389		3.822800000000016e-08
	1.177842804039423e+00
	5.764560000000003e-02
390		3.832800000000016e-08
	1.177780573628392e+00
	5.766560000000004e-02
391		3.842800000000016e-08
	1.177718319088619e+00
	5.768560000000004e-02
392		3.852800000000016e-08
	1.177656040409808e+00
	5.770560000000004e-02
393		3.862800000000016e-08
	1.177593737581661e+00
	5.772560000000004e-02
394		3.872800000000016e-08
	1.177531410593880e+00
	5.774560000000004e-02
395		3.882800000000016e-08
	1.177469059436167e+00
	5.776560000000003e-02
396		3.892800000000016e-08
	1.177406684098222e+00
	5.778560000000003e-02
397		3.902800000000016e-08
	1.177344284569747e+00
	5.780560000000004e-02
398		3.912800000000016e-08
	1.177281860840444e+00
	5.782560000000004e-02
399		3.922800000000016e-08
	1.177219412900015e+00
	5.784560000000004e-02
400		3.932800000000017e-08
	1.177156940738160e+00
	5.786560000000004e-02
401		3.942800000000017e-08
	1.177094444344579e+00
	5.788560000000004e-02
402		3.952800000000017e-08
	1.177031923708975e+00
	5.790560000000004e-02
403		3.962800000000017e-08
	1.176969378821049e+00
	5.792560000000004e-02
404		3.972800000000017e-08
	1.176906809670500e+00
	5.794560000000004e-02
405		3.982800000000017e-08
	1.176844216247030e+00
	5.796560000000004e-02
406		3.992800000000017e-08
	1.176781598540339e+00
	5.798560000000004e-02
407		4.002800000000017e-08
	1.176718956540130e+00
	5.800560000000004e-02
408		4.012800000000017e-08
	1.176656290236102e+00
	5.802560000000004e-02
409		4.022800000000017e-08